<VTKFile type="UnstructuredGrid" version="1.0" byte_order="LittleEndian" header_type="UInt64">
<UnstructuredGrid>
<Piece NumberOfPoints="18732" NumberOfCells="37464">
<Points>
<DataArray NumberOfComponents="3" type="Float64">
1.0 0.0 0.0
0.0 0.5 0.0
-1.0 0.0 0.0
0.0 -0.5 0.0
0.5 0.0 0.0
0.4 0.1 0.0
0.0714285714286 0.115 0.0
-0.263157894737 0.115 0.0
-0.333333333333 0.1 0.0
-0.4 0.07 0.0
-0.4 -0.07 0.0
-0.333333333333 -0.1 0.0
0.4 -0.1 0.0
-0.333333333333 0.18 0.0
-0.4 0.13 0.0
-0.4 -0.18 0.0
-0.333333333333 -0.13 0.0
0.999803005783 0.0099240821568 0.0
0.999213028258 0.0198325752188 0.0
0.998233055003 0.0297101325248 0.0
0.996867974329 0.0395418820895 0.0
0.995124444992 0.0493136365014 0.0
0.993010725433 0.0590120732885 0.0
0.990536473189 0.0686248775634 0.0
0.987712524311 0.0781408493027 0.0
0.9845506638 0.0875499720309 0.0
0.981063400762 0.096843435096 0.0
0.977263747589 0.106013640216 0.0
0.973165021971 0.115054161173 0.0
0.968780665665 0.123959692878 0.0
0.964124085048 0.132725985239 0.0
0.959208522905 0.141349752021 0.0
0.95404694494 0.149828591106 0.0
0.94865195762 0.158160885891 0.0
0.943035737615 0.166345722504 0.0
0.937209988804 0.174382795085 0.0
0.931185908457 0.182272326405 0.0
0.924974168071 0.190014991778 0.0
0.918584905561 0.197611848883 0.0
0.912027727946 0.20506427252 0.0
0.905311716937 0.212373900925 0.0
0.898445443572 0.219542584095 0.0
0.89143698904 0.226572336447 0.0
0.884293944072 0.233465318879 0.0
0.877023473216 0.240223764139 0.0
0.869632291181 0.246849993992 0.0
0.86212670773 0.253346373479 0.0
0.854512651995 0.259715290068 0.0
0.846795697932 0.265959135002 0.0
0.838981067085 0.272080304815 0.0
0.831073669142 0.278081173607 0.0
0.823078148747 0.283964065092 0.0
0.814998771115 0.289731342403 0.0
0.806839648435 0.295385249172 0.0
0.798604626373 0.300928002492 0.0
0.790297301484 0.30636178583 0.0
0.781921051314 0.311688734763 0.0
0.773479086459 0.316910911303 0.0
0.764974416132 0.322030333456 0.0
0.756409873886 0.327048965251 0.0
0.747788145872 0.331968706693 0.0
0.739111755328 0.33679140916 0.0
0.730383104273 0.341518857822 0.0
0.721604438115 0.346152796787 0.0
0.712777910167 0.350694899727 0.0
0.703905546595 0.355146794112 0.0
0.694989256249 0.359510060255 0.0
0.686030855961 0.363786223169 0.0
0.677032089555 0.367976748489 0.0
0.667994573397 0.372083072012 0.0
0.658919884822 0.376106562488 0.0
0.649809501543 0.38004855338 0.0
0.640664816602 0.383910338741 0.0
0.631487188825 0.387693155198 0.0
0.622277890633 0.391398207338 0.0
0.613038142679 0.395026655943 0.0
0.603769106389 0.398579623843 0.0
0.594471891601 0.402058195444 0.0
0.585147563262 0.405463416725 0.0
0.575797132229 0.4087963009 0.0
0.566421572456 0.412057824297 0.0
0.557021809532 0.415248932481 0.0
0.547598737195 0.418370536433 0.0
0.538153208497 0.421423517434 0.0
0.528686040189 0.424408727205 0.0
0.519198020584 0.427326987043 0.0
0.509689905908 0.430179090559 0.0
0.50016242032 0.432965805029 0.0
0.490616262137 0.43568787088 0.0
0.481052103838 0.438346003003 0.0
0.471470593376 0.440940891612 0.0
0.461872353224 0.443473203623 0.0
0.452257987402 0.445943581866 0.0
0.442628074359 0.448352647976 0.0
0.432983176034 0.450701001017 0.0
0.423323833889 0.452989219425 0.0
0.413650570968 0.455217861342 0.0
0.403963896855 0.457387464312 0.0
0.394264300183 0.459498547767 0.0
0.384552256772 0.461551611906 0.0
0.374828227648 0.463547138854 0.0
0.365092660044 0.465485593113 0.0
0.355345989833 0.467367421712 0.0
0.34558863648 0.469193055771 0.0
0.335821010743 0.470962909565 0.0
0.326043512249 0.472677381551 0.0
0.316256529405 0.474336854885 0.0
0.30646044007 0.475941697761 0.0
0.296655612208 0.477492263745 0.0
0.28684240643 0.478988891801 0.0
0.27702117337 0.480431907117 0.0
0.267192257047 0.48182162098 0.0
0.257355991625 0.483158331599 0.0
0.247512705567 0.484442323859 0.0
0.237662720166 0.485673869856 0.0
0.227806349999 0.486853229141 0.0
0.217943903366 0.487980648947 0.0
0.208075683487 0.489056364324 0.0
0.198201987871 0.490080598474 0.0
0.188323107346 0.491053563076 0.0
0.178439331182 0.491975457997 0.0
0.168550940494 0.492846472154 0.0
0.158658214347 0.493666783119 0.0
0.148761428127 0.494436557483 0.0
0.138860851918 0.495155951142 0.0
0.12895675341 0.495825109225 0.0
0.11904939707 0.496444166311 0.0
0.109139044417 0.49701324655 0.0
0.0992259542781 0.497532463764 0.0
0.0893103830524 0.498001921552 0.0
0.0793925849521 0.498421713375 0.0
0.0694728122378 0.498791922639 0.0
0.0595513154602 0.499112622768 0.0
0.0496283436759 0.499383877269 0.0
0.0397041448085 0.49960573978 0.0
0.0297789654723 0.499778254133 0.0
0.0198530514526 0.499901454376 0.0
0.00992664801427 0.499975364808 0.0
-0.00992664805421 0.499975364808 0.0
-0.019853051534 0.499901454375 0.0
-0.0297789655911 0.499778254131 0.0
-0.0397041449649 0.499605739777 0.0
-0.0496283438661 0.499383877264 0.0
-0.0595513156863 0.499112622762 0.0
-0.069472812501 0.49879192263 0.0
-0.0793925852511 0.498421713363 0.0
-0.0893103833912 0.498001921537 0.0
-0.0992259546571 0.497532463745 0.0
-0.109139044841 0.497013246526 0.0
-0.119049397538 0.496444166283 0.0
-0.128956753922 0.495825109191 0.0
-0.138860852473 0.495155951103 0.0
-0.148761428724 0.494436557438 0.0
-0.158658214986 0.493666783068 0.0
-0.168550941176 0.492846472096 0.0
-0.178439331909 0.491975457932 0.0
-0.188323108119 0.491053563002 0.0
-0.198201988689 0.490080598392 0.0
-0.208075684353 0.489056364231 0.0
-0.217943904275 0.487980648845 0.0
-0.227806350953 0.486853229029 0.0
-0.237662721161 0.485673869734 0.0
-0.247512706606 0.484442323726 0.0
-0.257355992704 0.483158331455 0.0
-0.267192258168 0.481821620824 0.0
-0.277021174536 0.480431906949 0.0
-0.28684240764 0.478988891619 0.0
-0.296655613461 0.47749226355 0.0
-0.306460441366 0.475941697553 0.0
-0.316256530744 0.474336854662 0.0
-0.326043513629 0.472677381313 0.0
-0.335821012162 0.470962909312 0.0
-0.345588637942 0.469193055502 0.0
-0.355345991336 0.467367421426 0.0
-0.365092661588 0.46548559281 0.0
-0.374828229232 0.463547138534 0.0
-0.384552258403 0.461551611566 0.0
-0.394264301858 0.459498547408 0.0
-0.403963898573 0.457387463932 0.0
-0.413650572725 0.455217860942 0.0
-0.423323835687 0.452989219005 0.0
-0.432983177868 0.450701000577 0.0
-0.442628076233 0.448352647514 0.0
-0.452257989316 0.445943581381 0.0
-0.461872355179 0.443473203114 0.0
-0.471470595371 0.440940891078 0.0
-0.481052105873 0.438346002444 0.0
-0.490616264216 0.435687870294 0.0
-0.500162422435 0.432965804419 0.0
-0.509689908061 0.430179089921 0.0
-0.519198022773 0.427326986378 0.0
-0.528686042413 0.424408726512 0.0
-0.538153210761 0.421423516711 0.0
-0.547598739498 0.41837053568 0.0
-0.557021811872 0.415248931696 0.0
-0.566421574829 0.412057823481 0.0
-0.575797134636 0.408796300052 0.0
-0.585147565706 0.405463415843 0.0
-0.594471894082 0.402058194527 0.0
-0.603769108906 0.39857962289 0.0
-0.613038145229 0.395026654953 0.0
-0.622277893216 0.391398206311 0.0
-0.631487191437 0.387693154134 0.0
-0.640664819243 0.383910337639 0.0
-0.649809504206 0.380048552241 0.0
-0.658919887512 0.37610656131 0.0
-0.667994583517 0.37208306747 0.0
-0.677032092307 0.367976747223 0.0
-0.686030864822 0.363786218991 0.0
-0.694989259067 0.359510058893 0.0
-0.703905549424 0.355146792711 0.0
-0.712777912955 0.35069489831 0.0
-0.721604440827 0.346152795373 0.0
-0.730383106911 0.341518856412 0.0
-0.739111757888 0.336791407755 0.0
-0.747788148358 0.331968705293 0.0
-0.756409876295 0.327048963858 0.0
-0.764974418471 0.322030332067 0.0
-0.773479088727 0.316910909919 0.0
-0.781921053507 0.311688733388 0.0
-0.790297303607 0.30636178446 0.0
-0.798604628423 0.300928001132 0.0
-0.806839650413 0.295385247821 0.0
-0.814998773015 0.289731341066 0.0
-0.823078150576 0.283964063767 0.0
-0.831073670902 0.278081172292 0.0
-0.838981068771 0.272080303516 0.0
-0.846795699549 0.265959133714 0.0
-0.854512653542 0.259715288795 0.0
-0.862126709211 0.253346372218 0.0
-0.869632292588 0.246849992753 0.0
-0.877023474548 0.240223762923 0.0
-0.884293947734 0.233465315412 0.0
-0.891436986163 0.226572339276 0.0
-0.89844544469 0.219542582951 0.0
-0.905311717991 0.212373899802 0.0
-0.912027728934 0.205064271422 0.0
-0.918584906481 0.197611847814 0.0
-0.924974168923 0.190014990741 0.0
-0.931185909243 0.1822723254 0.0
-0.937209989527 0.174382794114 0.0
-0.943035738274 0.166345721569 0.0
-0.948651958219 0.158160884994 0.0
-0.954046945481 0.149828590245 0.0
-0.959208523387 0.141349751204 0.0
-0.964124085473 0.132725984468 0.0
-0.968780666038 0.123959692148 0.0
-0.973165022292 0.115054160493 0.0
-0.977263747864 0.106013639583 0.0
-0.981063400991 0.0968434345167 0.0
-0.984550663988 0.0875499715035 0.0
-0.98771252446 0.0781408488336 0.0
-0.990536473303 0.0686248771526 0.0
-0.993010725516 0.0590120729386 0.0
-0.995124445049 0.0493136362112 0.0
-0.996867974366 0.039541881855 0.0
-0.998233055025 0.0297101323469 0.0
-0.999213028268 0.0198325750999 0.0
-0.999803005786 0.00992408209621 0.0
-0.999803005783 -0.0099240821568 0.0
-0.999213028258 -0.0198325752188 0.0
-0.998233055003 -0.0297101325248 0.0
-0.996867974329 -0.0395418820895 0.0
-0.995124444992 -0.0493136365014 0.0
-0.993010725433 -0.0590120732885 0.0
-0.990536473189 -0.0686248775634 0.0
-0.987712524311 -0.0781408493027 0.0
-0.9845506638 -0.0875499720309 0.0
-0.981063400762 -0.096843435096 0.0
-0.977263747589 -0.106013640216 0.0
-0.973165021971 -0.115054161173 0.0
-0.968780665665 -0.123959692878 0.0
-0.964124085048 -0.132725985239 0.0
-0.959208522905 -0.141349752021 0.0
-0.95404694494 -0.149828591106 0.0
-0.94865195762 -0.158160885891 0.0
-0.943035737615 -0.166345722504 0.0
-0.937209988804 -0.174382795085 0.0
-0.931185908457 -0.182272326405 0.0
-0.924974168071 -0.190014991778 0.0
-0.918584905561 -0.197611848883 0.0
-0.912027727946 -0.20506427252 0.0
-0.905311716937 -0.212373900925 0.0
-0.898445443572 -0.219542584095 0.0
-0.89143698904 -0.226572336447 0.0
-0.884293944072 -0.233465318879 0.0
-0.877023473216 -0.240223764139 0.0
-0.869632291181 -0.246849993992 0.0
-0.86212670773 -0.253346373479 0.0
-0.854512651995 -0.259715290068 0.0
[...]
<PointData Scalars="rendu">
<DataArray type="Float64" Name="Partie Relle" format="ascii">
0.0032339682393732576
-0.022125924511612688
-0.00270058462000195
-0.00474318565055305
-0.28366218546322625
0.6536436208636119
-0.7555613467006966
0.8727378164983596
0.9816740047110791
0.6536436208636119
0.6536436208636119
0.9816740047110791
0.6536436208636119
0.9816740047110791
0.6536436208636119
0.6536436208636119
0.9816740047110791
0.003236556066096132
0.003243754228185755
0.0032586059979660136
0.0032772093393154027
0.0033043002829900815
0.0033366636096880723
0.0033744374954889768
0.003418847936673866
0.0034707730174354224
0.0035288465978298104
0.0035930677858385927
0.003664507232236708
0.0037442297402905033
0.0038299076454930757
0.003923759639317048
0.0040254283111594395
0.004136215358662208
0.004254746915103055
0.004380656977801226
0.00451663323838058
0.0046606992046771874
0.004814152000263986
0.004976626520373893
0.005150412032278662
0.005332816383811516
0.0055269026100440675
0.0057253425848987445
0.005941273896268553
0.006165463606113706
0.006399932826065788
0.006646477755241707
0.006903500061909244
0.007171854138072623
0.007449291724726326
0.007738800465014983
0.00803638697575898
0.008356111187437143
0.008674453385011808
0.009008431823032393
0.009350386150464789
0.00970312672991008
0.010069531734817522
0.010442452893028711
0.010820692062598941
0.0112043051576056
0.011604146086940855
0.012000319420057673
0.012407345045770993
0.012820445731993514
0.01322701556717442
0.01362748036037131
0.014045275968355486
0.01443795036710109
0.014848232040050136
0.015251395031387933
0.015632533622064904
0.016000249914437156
0.016363867581235172
0.016715823235707108
0.017041648624850532
0.01735772716843868
0.01763928478857347
0.017904141912393354
0.018140698661611523
0.018322502432810264
0.018511767677893174
0.018657655430667004
0.018742280558064418
0.018812518655806767
0.01880790633234067
0.018825347712460538
0.018729299573569815
0.018611026292897407
0.018413639633908435
0.018165021279104483
0.017889217079908242
0.01754429029813425
0.01710648064072948
0.01660575993133814
0.016017463568004126
0.015363500780342067
0.014619247669081773
0.013792586280896139
0.012847395092371155
0.011834138006619978
0.010706747306706139
0.009489084942753686
0.00815082960541818
0.006722930686982691
0.005180950296311929
0.003553340262090335
0.001828728255375796
3.036727576813565e-05
-0.001829338075581968
-0.0037518455863745463
-0.005711581314263173
-0.007693240232888372
-0.00967908186719155
-0.011644640399078495
-0.013571364726535893
-0.015430846535883324
-0.01722837036452016
-0.01894374114646126
-0.020509295552663506
-0.02197367935305961
-0.023285978462355056
-0.02441809600504988
-0.025437355535801003
-0.026242072647188475
-0.026897730960090478
-0.02734062090311981
-0.027656002911964458
-0.027755834492007792
-0.027693882684317488
-0.027492644530767867
-0.027093468364006716
-0.026586931168576595
-0.02594305349836471
-0.025143591656290012
-0.024256631298412306
-0.02323565468793969
-0.020959343759216487
-0.01969347351232291
-0.01836911621263664
-0.016980222354082607
-0.015581085477464462
-0.014123466184865631
-0.012650861315658686
-0.011152476115041495
-0.009648647113572304
-0.008149750044893881
-0.006646968404977031
-0.005163800908434772
-0.003692005597861355
-0.0022437352962264173
-0.0008201104578963718
0.0005650964503681835
0.0019207768721445926
0.0032298594030296247
0.0045021742775539315
0.005711417096466887
0.006887539366756519
0.007999782462498694
0.009036203181120047
0.010014953079419324
0.010946346264473716
0.011793291274805703
0.012558367894524374
0.013271483375808734
0.013888193295867796
0.014447711658979203
0.01490354321642798
0.015291197239544023
0.015577572472136205
0.015804608397282795
0.015931298093679557
0.015955042713508272
0.01591917712988934
0.015792207994082427
0.015573205909790874
0.01530597610773597
0.01492728215788348
0.01449635508324923
0.014006305250526159
0.013433202938262011
0.012816214729883188
0.012144522962012263
0.01144690597968631
0.010690341776687626
0.009924860256034044
0.00912244941984408
0.008307133836695272
0.007485927317253273
0.006660336088797947
0.0058316259848214015
0.005027111354983411
0.00422905892224959
0.0034451121081548715
0.0026923135545752178
0.0019661015394600296
0.0012741420420919922
0.0006119325579460315
-2.219353891009737e-05
-0.0006028950114843888
-0.001163495139405603
-0.0016706107351202434
-0.002148827004721426
-0.0025748108509673247
-0.00297775564059748
-0.0033351613666349035
-0.003643570755258942
-0.003928772957239305
-0.004177222878345024
-0.004387250659432689
-0.004565325522224748
-0.004723164869556686
-0.004841894250206735
-0.004938474039716717
-0.00500976838244752
-0.005060821916250239
-0.005089329872181889
-0.005094678598461228
-0.005096985815431978
-0.0050719724569963055
-0.005036747196820365
-0.004987544026502668
-0.0049306078147604345
-0.004863628085119844
-0.004788336985132124
-0.00471020852957657
-0.004623128170624712
-0.004534898240617759
-0.0044412550297246185
-0.0043477255122373005
-0.004250585971317224
-0.004154123309884625
-0.004059028701896626
-0.003961503866319024
-0.0038687981638945313
-0.0037784913775310725
-0.0036883699755341833
-0.0036022213741119012
-0.0035165801005203508
-0.0034363529317078074
-0.0033597879914306246
-0.0032866410317151954
-0.0032166574223562432
-0.003152314728727752
-0.0030922156062391
-0.003034926802739635
-0.0029827511376912755
-0.002934297661002374
-0.0028909167536364344
-0.002852300669872359
-0.00281707923941297
-0.0027872792525055297
-0.002761467608554535
-0.0027409771234758367
-0.0027241823569403648
-0.0027106326428556634
-0.0027036555367407956
-0.00270015691128387
-0.0027059599046166064
-0.0027160646433361077
-0.002730122740972369
-0.0027482099499884804
-0.002772522331060443
-0.0028005238856060903
-0.0028333249173513398
-0.002870520855875733
-0.0029130363985005285
-0.002960531829683469
-0.0030123486905885622
-0.00306984686199392
-0.003130702919509366
-0.0031980083656210864
-0.003270449575092633
-0.0033458761851836694
-0.0034285059181695735
-0.003514400139631597
-0.0036068735788077687
-0.003702972602760735
-0.003803795843197157
-0.00390770636891544
-0.004018777765078913
-0.004130989046420521
-0.004247318614739412
-0.004366925770548092
-0.004491778239287532
-0.004615179789724805
-0.0047365408818378345
-0.004867788438915274
-0.004994012558816503
-0.005123930174538314
-0.005247636210068156
-0.00537281602864017
-0.00549325943414189
-0.0056092554255741675
-0.0057229213205679955
-0.005824457379001953
-0.005923663036714502
-0.006007333314655094
-0.006088695868686329
-0.006145816931067343
-0.006196463331920518
-0.0062339294945815225
-0.006243456037557281
-0.006245159974418732
-0.006214056795318309
-0.006168117610264507
-0.006104765929682874
-0.006002160569185872
-0.005878733489214424
-0.005722194431537675
-0.005538309292723781
-0.005317051600863809
-0.00507553119100178
-0.004782618588913225
-0.004472714199046686
-0.004123889891912153
-0.0037298948292101503
-0.0033147075957754533
-0.002866730356556039
-0.002386188698889855
-0.001875599981212754
-0.0013363240716116772
-0.0007722663944770621
-0.00018670104961135046
0.00041429387713394126
0.0010422805921462305
0.0016722453103438998
0.0023065004259196693
0.0029540233103306558
0.0035908937091688633
0.004221330146878203
0.004840858356095161
0.0054466282409021925
0.006029116035729901
0.006584135223032738
0.007120130031214204
0.007618727583443756
0.008072822675626477
0.00849678567762481
0.008882564908311708
0.009216107377608035
0.00950367244106928
0.009744813755458942
0.009924679958436936
0.010058862582775004
0.010158043156895075
0.01018896403559318
0.010180709867303
0.010102806122527128
0.00999095340530691
0.00982406580530057
0.009619542580208282
0.009348452117008178
0.00905632558403483
0.00869890235534021
0.008313616020978836
0.007899929067315703
0.007437568548585892
0.006945592897478808
0.006429841608068771
0.005886107087182069
0.005310391087057312
0.004728359418653482
0.004118090405690579
0.0035026539842113653
0.0028802829146283857
0.0022530357180693987
0.0016157863982399728
0.0009863914259067492
0.0003632412508164266
-0.0002495595370918591
-0.0008504442667735717
-0.0014317850637700117
-0.0019980765204942025
-0.0025315617635564306
-0.00304432366624477
-0.00352327988416116
-0.003971040668450126
-0.004377641162471488
-0.005073469337813798
-0.005356724420450281
-0.0055897432902690565
-0.005770103697470421
-0.0059106227525704555
-0.005988041940032758
-0.006022206784023535
-0.005990623909287812
-0.005914475785880057
-0.005788984799277893
-0.005587048780586649
-0.005351252867427239
-0.005052471722472635
-0.004705919527545559
-0.0042962824995336196
-0.00385185583431023
-0.0033456735119751662
-0.0027975181281468735
-0.0022011162828593635
-0.0015705335564965756
-0.0008981269873926811
-0.0001921923010004048
0.0005497411390719074
0.001318458058109528
0.0021158287685191725
0.0029305449408883718
0.003764317522035373
0.004607369207440579
0.00546851257140661
0.006320594771643148
0.007185077532901602
0.008040944702650127
0.008886481080439993
0.009716321367077077
0.010528045967487985
0.011334333068525458
0.012101254288699634
0.012842433079123639
0.013551533284676637
0.014214490285017938
0.014865808207932006
0.015455216118344023
0.015989747167231748
0.016502340654459807
0.01696250748271488
0.01735492998827939
0.017708484539153618
0.018023189039711868
0.01827205630412471
0.018481534289733946
0.0186462011872335
0.018720746653987975
0.018787957727769512
0.01879527598350551
0.018751997513908894
0.01867722641360894
0.01855074834861378
0.01839316208601248
0.018193794159017722
0.017964829604151474
0.017695716361695653
0.017423349918386045
0.01710520141315759
0.01675922409638731
0.016408189951931825
0.016035901268511826
0.015645465872268394
0.015249774609573335
0.014843850201750854
0.014433278744791212
0.014006985957007369
0.01358755329014469
0.013170210067299765
0.012750998291671554
0.012334455871079677
0.01191512235266138
0.011506412952590639
0.011102011964245071
0.010717873108985407
0.010320713084930029
0.00994775741610739
0.009582510444618254
0.009224691947553225
0.008878292206781085
0.008540304201901803
0.00822072792724714
0.007906949237658915
0.007606965460515121
0.007318061981746004
0.007039005232879677
0.006774056801027522
0.006519274607982151
0.006276127768906349
0.006041847826086877
0.0058254411527980604
0.005614373423158092
0.005414301306449854
0.00522690793463444
0.005050233984001383
0.004881515047142498
0.004723096177357924
0.004573119692691512
0.0044330515003660476
0.00430269066710101
0.004180433754629816
0.004066832780080279
0.0039602173459952605
0.003864673893133596
0.00377506924605204
0.0036916939366878213
0.003617955158752148
0.003549779823557409
0.0034898944544574186
0.0034363869120239603
0.0033895477215055768
0.0033487775012382157
0.003313774940644992
0.00328627255585439
0.003264548549614426
0.0032486838399768013
0.0032386216813017005
-0.2790414321852021
-0.2651854948606698
-0.24212105319334923
-0.20991747326490134
-0.16872135592622697
-0.11879939917363394
-0.06058434802263873
0.005282176486397624
0.07791664302101786
0.1561767879115604
0.23866631419466314
0.32376445104297696
0.4096809652517934
0.49453405207503565
0.5764453441889037
0.5764453438633471
0.49453405140148005
0.4096809640253677
0.3237644493315541
0.2386663119389704
0.1561767848790905
0.07791663972458866
0.005282172823573387
-0.06058435093414211
-0.11879940134457201
-0.16872135746874498
-0.20991747419968215
-0.24212105369617612
-0.2651854950839698
-0.27904143223469074
0.7248550703883768
0.7891858909078512
0.8458942507192292
0.8943781228041984
0.9341443352775671
0.9647970250960685
0.9860345737387325
0.9976515211545476
0.9995456508297325
0.9917347422142025
0.9743975449107423
0.9479866160645551
0.913593957922157
0.8743908496515307
0.8407754580776324
0.8241368529461919
0.822045306566704
0.8282640032011724
0.8386152899178865
0.8504832986804695
0.8619014739642312
0.8707319562292992
0.8729008174962679
0.869929302727106
0.8689888513998272
0.8670496510387183
0.858673187026882
0.8311858931351528
0.7773241050359436
0.7116106389188469
0.639929577560591
0.563334821854382
0.48247735456085183
0.39797071922823374
0.31042147467475323
0.22041404783292573
0.1284647750548992
0.03477465449723034
-0.060210053756291675
-0.15483744846628886
-0.24737220131322094
-0.33575277819650057
-0.41735866971444163
-0.48887205728661887
-0.5471817366581443
-0.5908112357372379
-0.6231937613086034
-0.6482669535023431
-0.6687427774023418
-0.6864976536189913
-0.7029283202774645
-0.7191897712820101
-0.7363587128339842
-0.8162666029328218
-0.8690734354741929
-0.9134708706605996
-0.9490293065058547
-0.9754046696507043
-0.9923417447128831
-0.9996766438224064
-0.997338392446322
-0.9853496161582098
-0.9638263217067041
-0.9329767745018978
-0.8930994833809924
-0.8445803121534202
-0.7878887458747688
-0.7235733479783584
-0.6522564522220065
-0.5746281408127604
-0.4914395669786963
-0.40349568660065865
-0.31164746923429554
-0.21678366389063952
-0.11982219925232845
-0.021701301539080505
0.07662958403057141
0.17421898033698932
0.27012258511795817
0.3634124083011418
0.4531857514950364
0.5385739427507636
0.6187507420746245
0.6929403363575326
0.7604248463589687
0.8205512731069992
0.9121509690511692
0.9445499149919646
0.9696855157088334
0.9873644844637238
0.9974508743853417
0.9998671240169282
0.9945946529100606
0.9816740047110791
0.9816740047110791
0.9816740047110791
0.9816740047110791
0.9816740047110791
0.9816740047110791
0.9816740047110791
0.9648787890032128
0.9427917341656097
0.9155339757672464
0.8832550078938214
0.846131863253725
0.8043681422489298
0.7581928963372171
0.707859371808015
0.6536436208636119
0.6536436208636119
0.6536436208636119
0.6536436208636119
0.6536436208636119
0.5881881888746864
0.5165471745798303
0.4398672812806632
0.3591547275063875
0.27539183534681
0.1895912065771178
0.10283913318473956
0.016360994584770368
-0.0683359160715232
-0.14907783402448538
-0.22173721255698228
-0.27467166151216704
-0.27467165904919977
-0.2217372085157247
-0.14907782991200394
-0.0683359121372933
0.016360998167452085
0.10283913629751464
0.18959120917197583
0.2753918374447306
0.35915472907893914
0.43986728229997935
0.5165471751735989
0.5881881891483073
0.6536436208636119
0.6536436208636119
0.6536436208636119
0.6536436208636119
0.6536436208636119
0.6536436208636119
0.6536436208636119
0.6536436208636119
0.6536436208636119
0.6536436208636119
0.7078593718078195
0.7581928963367677
0.8043681422483517
0.8461318632530583
0.8832550078932713
0.9155339757668554
0.9427917341654263
0.9648787890031405
0.9816740047110791
0.9816740047110791
0.9957118370008571
0.9999791503001586
0.9944340711832592
0.9791310112769188
0.9542201333410139
0.9199458777816683
0.8766445640563985
0.8247410905066276
0.7647447650014705
0.6972443073051112
0.622902072206518
0.542447550099127
0.45667020878586934
0.3664117467492159
0.2725578339035161
0.17602942087293302
0.07777370207411045
-0.02124517872075572
-0.1200555891386028
-0.21768794244184483
-0.3131842116929303
-0.40560733048603564
-0.4940503880024588
-0.5776455281608377
-0.6555724655390851
-0.7270665345049458
-0.7914261925712154
-0.8480199043497375
-0.8962923385539978
-0.9357698172406723
-0.9660649638204761
-0.986880504228757
-0.9980121839560832
-0.9993507723153295
-0.9908831342783135
-0.9726923593646849
-0.9449569463179469
-0.9079490515689066
-0.8620318186748002
-0.8076558149376306
-0.7453546101690278
-0.6757395409842892
-0.5994937120028679
-0.5173652928178414
-0.4301601765095223
-0.33873407174118025
-0.2439841060346452
-0.14684002261972712
-0.04825505723830841
0.050803415573130985
0.14936337494099744
0.24645769170311496
0.3411336184575285
0.43246213848882525
0.5195470818348136
0.6015339190413983
0.6776181463147041
0.7470531797942643
0.8091576814784681
0.8633222449200324
0.9090153750859012
0.9457887037038147
0.9732813889194759
0.9912236560922532
0.9994394449850154
0.9978481373722128
0.9864653481142074
0.9654027719347964
0.9348670874059354
0.8951579288942085
0.8466649463695377
0.7898639819270545
0.725312400540386
0.002830843153487603
-0.002630075124243664
0.022665742538839295
0.024267048948104237
0.07193486633548257
-0.05802695609679636
0.0072297869206545415
0.004896291947473898
0.02546400728998606
-0.0635791934133471
0.0853012043729505
0.12221193300083416
0.06640988947865113
0.08679193548370857
0.03528683493284871
0.06492706423110149
0.090711432975931
-0.0314577666321445
0.002516679900267521
0.002553394003169039
0.11412310660416679
0.0016092041581317893
0.0012758266656151837
0.031049452977859226
-0.004266390623533175
-0.06349366991272341
0.005317654608668577
-0.020823705068338586
-8.976638679884123e-05
0.0010369025687846862
0.12195247716644404
-0.01141743766039692
-0.10113528683841848
0.07002746846687438
-0.00016954091097285055
0.11723151439947431
-0.0029666973522199293
0.029089844427137045
0.12358793783631675
0.1884286167064288
0.02197498635660928
-0.0002872888454394315
0.001271435417115034
0.05046836424675437
-0.022128487556050236
0.016974479317448436
0.036395830728797714
0.008069511722353512
0.011909126138002296
0.005522074781725506
0.13889911161249957
-0.2842619255671877
0.005729242877292717
0.004925758775023756
0.03286201633526503
0.2516029523596175
0.0379953942258984
-0.025922762556320963
0.00461962694895763
-0.013134832074027433
-0.23574683638410604
0.2433719082766274
0.36644401040059116
-0.004030667561898441
0.0063258993687652365
0.04633695699945418
0.140011190406616
0.046548797617913126
0.050959069275284596
0.06860522665951727
0.2488658650382725
0.04105685120535961
-0.0026245091535377976
0.016675538706420193
0.00581821041934176
0.012508932845053423
0.15743778223215427
0.014208628802772672
0.1853866892879645
0.02849912420630326
0.059036303666774204
0.2879185466915229
-0.000630996652186801
0.028183287266371305
0.029302462204070512
0.0021851277783736895
-0.14977062547273426
0.020374950272732045
-0.01587765299253577
-0.0007683095022307383
-0.0010527915944137265
0.0020660864949934004
0.02849906922886917
0.061906044906774066
0.2519359630410326
0.05659501562796983
-0.23576460753259867
0.01770769141941087
0.02049319402864709
0.05988101667455255
0.002427739295676205
-0.04393317348896534
0.007186020619473592
0.0017754764192618802
0.0019412411048654403
0.0018822310851934702
0.2913378920053922
-0.0002846583249215586
0.19358518015707546
0.008633928286084815
0.04427263246997559
-0.038261271120244036
0.00018445629684018695
-0.00017548341636010686
0.20139630005187906
0.00869101876143654
0.019023262833492396
0.07681945706016735
-0.0190927292996573
0.0678874939645259
-0.00018933339786632644
0.035718035568055646
0.004075576226548075
0.0038192009772751844
-0.00938399450714791
-0.012176255070638332
0.43871390084881057
-0.06749922076556737
0.09943941051891625
0.0008763453625400407
0.008154379950016511
-0.01005955990685219
0.2599579651694622
0.006096695781257518
-0.003623515296942322
-0.32880223670214026
0.0026349224700287673
0.0017901296274519347
-0.06661201266753194
0.06135182888219932
-0.25675490380105354
0.024046251755593162
0.023645675275855607
0.26610864225715475
-0.023567888855765568
-0.01859063329327284
0.0045568181358394255
0.1628730395352112
0.02042170741186515
-0.002724855673941918
0.008522803437872812
-0.032405201687064365
-0.004315205953050334
0.10443766974034091
-6.395609409243927e-05
0.011120656736578723
-0.12188244925760013
-0.11982607419694317
0.24554174203367934
0.02111850137979997
0.0040674671715692145
-0.011644655232025194
-0.0013446988215458126
0.016201370612162237
0.002179543752920128
0.11484912233590994
0.04981891877439876
0.13163253075945264
-0.008090823126446161
0.3024741737690776
0.04313593421108115
0.002452000551203649
0.031123627558886445
-0.004799023963297942
0.022982346684256756
0.004638833909011542
0.13812425587983487
-0.0014448375880627728
0.25817920122573174
0.014744329180959304
-0.08592563373342041
0.08523974353493544
0.01681503985969716
-0.02314150382962911
0.018199043344551767
0.06354678244293702
0.007300227778748233
0.023984271170590918
0.003758431317544757
0.08659275458557905
0.4307872669768521
0.003991966584754471
0.1895087904157919
0.024529333265062177
0.5335847499060843
0.04865983181171875