<VTKFile type="UnstructuredGrid" version="1.0" byte_order="LittleEndian" header_type="UInt64">
<UnstructuredGrid>
<Piece NumberOfPoints="18732" NumberOfCells="37464">
<Points>
<DataArray NumberOfComponents="3" type="Float64">
1.0 0.0 0.0
0.0 0.5 0.0
-1.0 0.0 0.0
0.0 -0.5 0.0
0.5 0.0 0.0
0.4 0.1 0.0
0.0714285714286 0.115 0.0
-0.263157894737 0.115 0.0
-0.333333333333 0.1 0.0
-0.4 0.07 0.0
-0.4 -0.07 0.0
-0.333333333333 -0.1 0.0
0.4 -0.1 0.0
-0.333333333333 0.18 0.0
-0.4 0.13 0.0
-0.4 -0.18 0.0
-0.333333333333 -0.13 0.0
0.999803005783 0.0099240821568 0.0
0.999213028258 0.0198325752188 0.0
0.998233055003 0.0297101325248 0.0
0.996867974329 0.0395418820895 0.0
0.995124444992 0.0493136365014 0.0
0.993010725433 0.0590120732885 0.0
0.990536473189 0.0686248775634 0.0
0.987712524311 0.0781408493027 0.0
0.9845506638 0.0875499720309 0.0
0.981063400762 0.096843435096 0.0
0.977263747589 0.106013640216 0.0
0.973165021971 0.115054161173 0.0
0.968780665665 0.123959692878 0.0
0.964124085048 0.132725985239 0.0
0.959208522905 0.141349752021 0.0
0.95404694494 0.149828591106 0.0
0.94865195762 0.158160885891 0.0
0.943035737615 0.166345722504 0.0
0.937209988804 0.174382795085 0.0
0.931185908457 0.182272326405 0.0
0.924974168071 0.190014991778 0.0
0.918584905561 0.197611848883 0.0
0.912027727946 0.20506427252 0.0
0.905311716937 0.212373900925 0.0
0.898445443572 0.219542584095 0.0
0.89143698904 0.226572336447 0.0
0.884293944072 0.233465318879 0.0
0.877023473216 0.240223764139 0.0
0.869632291181 0.246849993992 0.0
0.86212670773 0.253346373479 0.0
0.854512651995 0.259715290068 0.0
0.846795697932 0.265959135002 0.0
0.838981067085 0.272080304815 0.0
0.831073669142 0.278081173607 0.0
0.823078148747 0.283964065092 0.0
0.814998771115 0.289731342403 0.0
0.806839648435 0.295385249172 0.0
0.798604626373 0.300928002492 0.0
0.790297301484 0.30636178583 0.0
0.781921051314 0.311688734763 0.0
0.773479086459 0.316910911303 0.0
0.764974416132 0.322030333456 0.0
0.756409873886 0.327048965251 0.0
0.747788145872 0.331968706693 0.0
0.739111755328 0.33679140916 0.0
0.730383104273 0.341518857822 0.0
0.721604438115 0.346152796787 0.0
0.712777910167 0.350694899727 0.0
0.703905546595 0.355146794112 0.0
0.694989256249 0.359510060255 0.0
0.686030855961 0.363786223169 0.0
0.677032089555 0.367976748489 0.0
0.667994573397 0.372083072012 0.0
0.658919884822 0.376106562488 0.0
0.649809501543 0.38004855338 0.0
0.640664816602 0.383910338741 0.0
0.631487188825 0.387693155198 0.0
0.622277890633 0.391398207338 0.0
0.613038142679 0.395026655943 0.0
0.603769106389 0.398579623843 0.0
0.594471891601 0.402058195444 0.0
0.585147563262 0.405463416725 0.0
0.575797132229 0.4087963009 0.0
0.566421572456 0.412057824297 0.0
0.557021809532 0.415248932481 0.0
0.547598737195 0.418370536433 0.0
0.538153208497 0.421423517434 0.0
0.528686040189 0.424408727205 0.0
0.519198020584 0.427326987043 0.0
0.509689905908 0.430179090559 0.0
0.50016242032 0.432965805029 0.0
0.490616262137 0.43568787088 0.0
0.481052103838 0.438346003003 0.0
0.471470593376 0.440940891612 0.0
0.461872353224 0.443473203623 0.0
0.452257987402 0.445943581866 0.0
0.442628074359 0.448352647976 0.0
0.432983176034 0.450701001017 0.0
0.423323833889 0.452989219425 0.0
0.413650570968 0.455217861342 0.0
0.403963896855 0.457387464312 0.0
0.394264300183 0.459498547767 0.0
0.384552256772 0.461551611906 0.0
0.374828227648 0.463547138854 0.0
0.365092660044 0.465485593113 0.0
0.355345989833 0.467367421712 0.0
0.34558863648 0.469193055771 0.0
0.335821010743 0.470962909565 0.0
0.326043512249 0.472677381551 0.0
0.316256529405 0.474336854885 0.0
0.30646044007 0.475941697761 0.0
0.296655612208 0.477492263745 0.0
0.28684240643 0.478988891801 0.0
0.27702117337 0.480431907117 0.0
0.267192257047 0.48182162098 0.0
0.257355991625 0.483158331599 0.0
0.247512705567 0.484442323859 0.0
0.237662720166 0.485673869856 0.0
0.227806349999 0.486853229141 0.0
0.217943903366 0.487980648947 0.0
0.208075683487 0.489056364324 0.0
0.198201987871 0.490080598474 0.0
0.188323107346 0.491053563076 0.0
0.178439331182 0.491975457997 0.0
0.168550940494 0.492846472154 0.0
0.158658214347 0.493666783119 0.0
0.148761428127 0.494436557483 0.0
0.138860851918 0.495155951142 0.0
0.12895675341 0.495825109225 0.0
0.11904939707 0.496444166311 0.0
0.109139044417 0.49701324655 0.0
0.0992259542781 0.497532463764 0.0
0.0893103830524 0.498001921552 0.0
0.0793925849521 0.498421713375 0.0
0.0694728122378 0.498791922639 0.0
0.0595513154602 0.499112622768 0.0
0.0496283436759 0.499383877269 0.0
0.0397041448085 0.49960573978 0.0
0.0297789654723 0.499778254133 0.0
0.0198530514526 0.499901454376 0.0
0.00992664801427 0.499975364808 0.0
-0.00992664805421 0.499975364808 0.0
-0.019853051534 0.499901454375 0.0
-0.0297789655911 0.499778254131 0.0
-0.0397041449649 0.499605739777 0.0
-0.0496283438661 0.499383877264 0.0
-0.0595513156863 0.499112622762 0.0
-0.069472812501 0.49879192263 0.0
-0.0793925852511 0.498421713363 0.0
-0.0893103833912 0.498001921537 0.0
-0.0992259546571 0.497532463745 0.0
-0.109139044841 0.497013246526 0.0
-0.119049397538 0.496444166283 0.0
-0.128956753922 0.495825109191 0.0
-0.138860852473 0.495155951103 0.0
-0.148761428724 0.494436557438 0.0
-0.158658214986 0.493666783068 0.0
-0.168550941176 0.492846472096 0.0
-0.178439331909 0.491975457932 0.0
-0.188323108119 0.491053563002 0.0
-0.198201988689 0.490080598392 0.0
-0.208075684353 0.489056364231 0.0
-0.217943904275 0.487980648845 0.0
-0.227806350953 0.486853229029 0.0
-0.237662721161 0.485673869734 0.0
-0.247512706606 0.484442323726 0.0
-0.257355992704 0.483158331455 0.0
-0.267192258168 0.481821620824 0.0
-0.277021174536 0.480431906949 0.0
-0.28684240764 0.478988891619 0.0
-0.296655613461 0.47749226355 0.0
-0.306460441366 0.475941697553 0.0
-0.316256530744 0.474336854662 0.0
-0.326043513629 0.472677381313 0.0
-0.335821012162 0.470962909312 0.0
-0.345588637942 0.469193055502 0.0
-0.355345991336 0.467367421426 0.0
-0.365092661588 0.46548559281 0.0
-0.374828229232 0.463547138534 0.0
-0.384552258403 0.461551611566 0.0
-0.394264301858 0.459498547408 0.0
-0.403963898573 0.457387463932 0.0
-0.413650572725 0.455217860942 0.0
-0.423323835687 0.452989219005 0.0
-0.432983177868 0.450701000577 0.0
-0.442628076233 0.448352647514 0.0
-0.452257989316 0.445943581381 0.0
-0.461872355179 0.443473203114 0.0
-0.471470595371 0.440940891078 0.0
-0.481052105873 0.438346002444 0.0
-0.490616264216 0.435687870294 0.0
-0.500162422435 0.432965804419 0.0
-0.509689908061 0.430179089921 0.0
-0.519198022773 0.427326986378 0.0
-0.528686042413 0.424408726512 0.0
-0.538153210761 0.421423516711 0.0
-0.547598739498 0.41837053568 0.0
-0.557021811872 0.415248931696 0.0
-0.566421574829 0.412057823481 0.0
-0.575797134636 0.408796300052 0.0
-0.585147565706 0.405463415843 0.0
-0.594471894082 0.402058194527 0.0
-0.603769108906 0.39857962289 0.0
-0.613038145229 0.395026654953 0.0
-0.622277893216 0.391398206311 0.0
-0.631487191437 0.387693154134 0.0
-0.640664819243 0.383910337639 0.0
-0.649809504206 0.380048552241 0.0
-0.658919887512 0.37610656131 0.0
-0.667994583517 0.37208306747 0.0
-0.677032092307 0.367976747223 0.0
-0.686030864822 0.363786218991 0.0
-0.694989259067 0.359510058893 0.0
-0.703905549424 0.355146792711 0.0
-0.712777912955 0.35069489831 0.0
-0.721604440827 0.346152795373 0.0
-0.730383106911 0.341518856412 0.0
-0.739111757888 0.336791407755 0.0
-0.747788148358 0.331968705293 0.0
-0.756409876295 0.327048963858 0.0
-0.764974418471 0.322030332067 0.0
-0.773479088727 0.316910909919 0.0
-0.781921053507 0.311688733388 0.0
-0.790297303607 0.30636178446 0.0
-0.798604628423 0.300928001132 0.0
-0.806839650413 0.295385247821 0.0
-0.814998773015 0.289731341066 0.0
-0.823078150576 0.283964063767 0.0
-0.831073670902 0.278081172292 0.0
-0.838981068771 0.272080303516 0.0
-0.846795699549 0.265959133714 0.0
-0.854512653542 0.259715288795 0.0
-0.862126709211 0.253346372218 0.0
-0.869632292588 0.246849992753 0.0
-0.877023474548 0.240223762923 0.0
-0.884293947734 0.233465315412 0.0
-0.891436986163 0.226572339276 0.0
-0.89844544469 0.219542582951 0.0
-0.905311717991 0.212373899802 0.0
-0.912027728934 0.205064271422 0.0
-0.918584906481 0.197611847814 0.0
-0.924974168923 0.190014990741 0.0
-0.931185909243 0.1822723254 0.0
-0.937209989527 0.174382794114 0.0
-0.943035738274 0.166345721569 0.0
-0.948651958219 0.158160884994 0.0
-0.954046945481 0.149828590245 0.0
-0.959208523387 0.141349751204 0.0
-0.964124085473 0.132725984468 0.0
-0.968780666038 0.123959692148 0.0
-0.973165022292 0.115054160493 0.0
-0.977263747864 0.106013639583 0.0
-0.981063400991 0.0968434345167 0.0
-0.984550663988 0.0875499715035 0.0
-0.98771252446 0.0781408488336 0.0
-0.990536473303 0.0686248771526 0.0
-0.993010725516 0.0590120729386 0.0
-0.995124445049 0.0493136362112 0.0
-0.996867974366 0.039541881855 0.0
-0.998233055025 0.0297101323469 0.0
-0.999213028268 0.0198325750999 0.0
-0.999803005786 0.00992408209621 0.0
-0.999803005783 -0.0099240821568 0.0
-0.999213028258 -0.0198325752188 0.0
-0.998233055003 -0.0297101325248 0.0
-0.996867974329 -0.0395418820895 0.0
-0.995124444992 -0.0493136365014 0.0
-0.993010725433 -0.0590120732885 0.0
-0.990536473189 -0.0686248775634 0.0
-0.987712524311 -0.0781408493027 0.0
-0.9845506638 -0.0875499720309 0.0
-0.981063400762 -0.096843435096 0.0
-0.977263747589 -0.106013640216 0.0
-0.973165021971 -0.115054161173 0.0
-0.968780665665 -0.123959692878 0.0
-0.964124085048 -0.132725985239 0.0
-0.959208522905 -0.141349752021 0.0
-0.95404694494 -0.149828591106 0.0
-0.94865195762 -0.158160885891 0.0
-0.943035737615 -0.166345722504 0.0
-0.937209988804 -0.174382795085 0.0
-0.931185908457 -0.182272326405 0.0
-0.924974168071 -0.190014991778 0.0
-0.918584905561 -0.197611848883 0.0
-0.912027727946 -0.20506427252 0.0
-0.905311716937 -0.212373900925 0.0
-0.898445443572 -0.219542584095 0.0
-0.89143698904 -0.226572336447 0.0
-0.884293944072 -0.233465318879 0.0
-0.877023473216 -0.240223764139 0.0
-0.869632291181 -0.246849993992 0.0
-0.86212670773 -0.253346373479 0.0
-0.854512651995 -0.259715290068 0.0
[...]
<PointData Scalars="rendu">
<DataArray type="Float64" Name="Partie Relle" format="ascii">
-0.30106315782582305
-0.02943726059369343
0.7475571180759334
0.2128490530604293
-0.28366218546322625
0.6536436208636119
-0.7555613467006966
0.8727378164983596
0.9816740047110791
0.6536436208636119
0.6536436208636119
0.9816740047110791
0.6536436208636119
0.9816740047110791
0.6536436208636119
0.6536436208636119
0.9816740047110791
-0.3002255649422651
-0.29975673240258166
-0.2991665536524319
-0.2991196484214783
-0.2988344353713803
-0.2989313984770359
-0.2991806508813928
-0.29951407911880656
-0.29974639957070487
-0.30023825250356334
-0.30095445527159903
-0.3015335950661748
-0.3021953610450661
-0.30298009151608696
-0.3037868840588776
-0.30443554595189315
-0.3050377967079127
-0.3057894016098331
-0.30647880550857287
-0.3071108227564752
-0.307840940841594
-0.3082064653845033
-0.308850239997441
-0.30925851199293014
-0.30958696520375895
-0.30993859699873383
-0.31047270603717303
-0.31061094762853125
-0.31091219742512133
-0.31115835201974884
-0.3114487846447064
-0.31169742138791817
-0.31203282227901546
-0.31249077556732613
-0.3129020230796097
-0.31371554752536335
-0.3140019841410796
-0.31496546508976864
-0.3158687122700217
-0.317078334561818
-0.31846002639677506
-0.31983939638571046
-0.3215569377508642
-0.3236800104806605
-0.32613751237197114
-0.32848019186919075
-0.33147359654331826
-0.3346029995111751
-0.33793230166348376
-0.3418396363753694
-0.3463454808317309
-0.3506262169538433
-0.3558519625784493
-0.36082604933302137
-0.3662580512750626
-0.372194994419797
-0.37871978354601704
-0.3851178634561916
-0.39204189369781633
-0.3991430900558419
-0.4066124249247922
-0.41421100520197707
-0.422310856650274
-0.4302244921985716
-0.43900766626818166
-0.447112334007174
-0.4556025462061782
-0.46436898883626376
-0.4730980865662417
-0.4821027534893255
-0.4904165252206917
-0.49909891759224334
-0.5076747282691656
-0.5163842283385586
-0.5245135978535976
-0.5328146390028518
-0.5403992898339453
-0.5479008658190055
-0.5552272402551247
-0.562093849559583
-0.5686132154506764
-0.574680110158219
-0.5802202144320722
-0.5853194079248519
-0.5899969362989358
-0.5939331311456384
-0.5973887655184668
-0.6000742218812509
-0.6021615980082905
-0.6034097824226439
-0.6040563629979194
-0.6035478561911524
-0.6030127357024273
-0.6003011136942256
-0.5970852914481328
-0.5926565505871972
-0.5873682974499465
-0.5807821500857483
-0.5727677444413966
-0.5635902379701148
-0.5533724830100695
-0.5410909447760707
-0.5277340817826537
-0.512510828160383
-0.4962735084805501
-0.47809847991295135
-0.45847259182046507
-0.4376085632300406
-0.41486305101589105
-0.39106748043216644
-0.365820129549429
-0.339080405396669
-0.3111940506983425
-0.2824260215038171
-0.2526873910229775
-0.22203751888099985
-0.19064534081069517
-0.15877236169565578
-0.12653098121639544
-0.09412178661529537
-0.06170332164560481
0.002531867229224961
0.03385017706499342
0.06447895001012172
0.09424058464074371
0.12293122830546238
0.15017569941425443
0.17622102683335378
0.20062295279041722
0.22309351772352445
0.2437825072919175
0.2625435033866332
0.2793340694249902
0.29338302933565324
0.3053762032712421
0.31531805264243595
0.32223943295347207
0.3272132109149888
0.3292928523939107
0.329264338925117
0.3261872362508824
0.32122557495455234
0.31342989868213317
0.303042089144016
0.2911359344326454
0.2764572312253012
0.25975096996970115
0.24111546774927284
0.22060686371975918
0.1983884425548511
0.1748579150526095
0.14962550541212338
0.12343550183441601
0.09602728960635347
0.06801799342572559
0.03917173151080662
0.009920011976039407
-0.01954161478509142
-0.04902614420192311
-0.07837273616358884
-0.10727580674488729
-0.13589035713904893
-0.16351997487683656
-0.19013751424614087
-0.21559157156898648
-0.24018924358804114
-0.26309176226156533
-0.2841360271468841
-0.30364028775216784
-0.32117695784842276
-0.33662501062137
-0.35023994521353574
-0.3613973112906208
-0.3703365409668869
-0.3771046859152331
-0.38117055223528445
-0.382859243463335
-0.38242509212072484
-0.37916611423905605
-0.373583410959685
-0.3653577154673958
-0.354980496964392
-0.3425907555635753
-0.3273015001640613
-0.3105238331363583
-0.2911283054395711
-0.2701258353558667
-0.24687866375522705
-0.2223286843457011
-0.19592763935887011
-0.167822480266948
-0.13889182530319366
-0.10847760735295461
-0.07703482479646222
-0.04469497603815549
-0.011828550654479925
0.02176024119548314
0.05568521115824735
0.08989414145407462
0.12418338306480177
0.15839216426482222
0.19255138018507237
0.2261235178291821
0.2592902784345262
0.29184852906327396
0.32384060618536015
0.35473364375290545
0.38478961050030114
0.4141501016515285
0.44190888389096217
0.468667159667977
0.49432158747572025
0.5185352104088465
0.5414099691952787
0.5627365596616856
0.5831977116957413
0.6021078350773613
0.6195151546537316
0.6350211056717545
0.6499841097433883
0.6632372799470726
0.6753247286409173
0.6859862842688282
0.6952789978405235
0.7039453277235321
0.711355780353045
0.717732577698117
0.723249340633992
0.7275889122044417
0.7313575643854258
0.7345684060984911
0.7371215389677351
0.7393783101148105
0.7408814295212758
0.742153506436495
0.7433422567842048
0.7441113937954513
0.7447107769003076
0.7450290496731682
0.7460188087979048
0.7460567091137446
0.7465969132824906
0.7480173565179181
0.748544131775383
0.7492827633920992
0.7503442462353558
0.7506318671008169
0.7511735956126682
0.7518445140967358
0.7521491077983155
0.7517932834916025
0.7515843657897531
0.7508052276759308
0.749725460483275
0.7479301117337684
0.7453369670489443
0.7422831287564391
0.7380861894781805
0.7331607697531435
0.7270766434143374
0.7199547308036415
0.711597705989539
0.7021359296659053
0.6915865669405352
0.6794649902085843
0.6660561911251826
0.6511802467735835
0.6353091715558197
0.6167470799265876
0.5978848978749873
0.5774729649779992
0.555062432220448
0.5312687440706985
0.5063628727891107
0.47993794750175744
0.4522828472046726
0.42321788267316596
0.39292544913582295
0.3616857403492338
0.32960891070011106
0.29629770143698236
0.2622024771832937
0.22759065715612267
0.1923738228932776
0.1567243431899199
0.12082092855101395
0.08477349599934506
0.048715279189586125
0.012905778060067446
-0.0226836040727881
-0.057839471589009546
-0.09220711566260106
-0.12588252814037035
-0.1585347592501297
-0.1901314100711091
-0.22047046189897007
-0.2494522086068171
-0.2768216149942076
-0.3025997014152684
-0.32661760014981833
-0.34838409856825936
-0.368436395697691
-0.3865368475280602
-0.402143434761867
-0.4156128040789664
-0.4266960064794498
-0.43536399717040525
-0.44162868815939865
-0.4456851889697825
-0.4467764689378809
-0.445853464130159
-0.4424700908953062
-0.4359657065027676
-0.42791879857797244
-0.41725617265419135
-0.40454158519804245
-0.3894116987783518
-0.3725296155406286
-0.3532353969520533
-0.3324738452594088
-0.30991199121373425
-0.28590129571558975
-0.2604351398796938
-0.233509244027406
-0.2055899011076277
-0.17675871138594487
-0.14715108834531634
-0.1170162730539401
-0.08628897060616962
-0.05544990999086147
-0.024549902340071095
0.0062574531972698876
0.03669193870994547
0.06669244430084327
0.09607584522091309
0.12463179825466311
0.15202688123440256
0.17857130253892
0.20354349583904596
0.2273500308579709
0.24951683491247328
0.2699412446269434
0.28859179381833766
0.3055008284537838
0.3204729216679736
0.33306908520524126
0.34406706208120114
0.3524975115873503
0.35909268848207704
0.3631866854000693
0.3655082039020376
0.36520868647083543
0.36294721087576376
0.3586573485978749
0.3522341589401652
0.34361599172757845
0.3334200275672631
0.32051783791647503
0.3066565292729638
0.2908462353513952
0.27321595653089303
0.2544919217758545
0.23416243231769762
0.1902117091676653
0.16680229929666113
0.1424864100859393
0.11765820533162534
0.09220773394480093
0.0663565436422707
0.040352118550428806
0.01422980515054218
-0.011839960227651743
-0.037721655266656655
-0.0632429413464842
-0.08834879640868744
-0.11285370853648768
-0.13681032546810715
-0.15979497959573238
-0.18213730058049998
-0.20338198844880234
-0.22368434329534592
-0.24267587789786937
-0.26071670674217906
-0.2774491683215655
-0.293073441904305
-0.3072292190083309
-0.3202888369444469
-0.3317026215455172
-0.3421498665288334
-0.35111327196164427
-0.3591321298268128
-0.36517195888197984
-0.3707377575133144
-0.37456592623344553
-0.37755386660264656
-0.3796409943860861
-0.38025328747873816
-0.3802400218469089
-0.37905951852398734
-0.37724390949429937
-0.37461260922524603
-0.3713410166780538
-0.36768149371739556
-0.36296190331986344
-0.35830874992495076
-0.3530450041919395
-0.3474380092669221
-0.34182799761188
-0.3358605354681679
-0.3299753277686594
-0.3239555862159148
-0.31787507336369375
-0.31203495182999486
-0.3061165422908696
-0.30086277169609926
-0.2954565179974433
-0.290467040556025
-0.28589448512800897
-0.28149907839291466
-0.27754300134696075
-0.27396862178940606
-0.2707604597354635
-0.268031364253158
-0.26586627036855565
-0.2637023094546191
-0.26236541155826043
-0.2614590952840263
-0.2607787332777733
-0.26065993881571586
-0.26095173360731017
-0.261545023111619
-0.2624997404135437
-0.26375894813978196
-0.2656059833075203
-0.2675419751816164
-0.26964523874079604
-0.27209771232801505
-0.2747064986170805
-0.27777724113645513
-0.28084421652124275
-0.28396181104305673
-0.286975310268408
-0.290628880466581
-0.29378638720868544
-0.29711550431949063
-0.30034090351577614
-0.30367035963951516
-0.30694351024538413
-0.309755348895768
-0.31266400770669006
-0.3154485475396382
-0.31795025194245685
-0.32028742210597294
-0.3225116723912607
-0.3242748718198559
-0.3260744860302319
-0.3276600383392084
-0.328528503637307
-0.3293260297672528
-0.33020813082744643
-0.3306223168379899
-0.3305770108566504
-0.3304167413686686
-0.33003960507829994
-0.32938151015722855
-0.3287328795532167
-0.3277894792913593
-0.3265027565266222
-0.3252651889192286
-0.3239394084225054
-0.3221020870919319
-0.3203606933814689
-0.31892403924136925
-0.31694558448439397
-0.3152590064111426
-0.31352248933165644
-0.311635542542178
-0.3099361880114067
-0.30824580456472417
-0.30686773102468445
-0.30537893404393956
-0.30397818444188573
-0.3028275102280681
-0.30179527097487807
-0.2790414321852021
-0.2651854948606698
-0.24212105319334923
-0.20991747326490134
-0.16872135592622697
-0.11879939917363394
-0.06058434802263873
0.005282176486397624
0.07791664302101786
0.1561767879115604
0.23866631419466314
0.32376445104297696
0.4096809652517934
0.49453405207503565
0.5764453441889037
0.5764453438633471
0.49453405140148005
0.4096809640253677
0.3237644493315541
0.2386663119389704
0.1561767848790905
0.07791663972458866
0.005282172823573387
-0.06058435093414211
-0.11879940134457201
-0.16872135746874498
-0.20991747419968215
-0.24212105369617612
-0.2651854950839698
-0.27904143223469074
0.7248550703883768
0.7891858909078512
0.8458942507192292
0.8943781228041984
0.9341443352775671
0.9647970250960685
0.9860345737387325
0.9976515211545476
0.9995456508297325
0.9917347422142025
0.9743975449107423
0.9479866160645551
0.913593957922157
0.8743908496515307
0.8407754580776324
0.8241368529461919
0.822045306566704
0.8282640032011724
0.8386152899178865
0.8504832986804695
0.8619014739642312
0.8707319562292992
0.8729008174962679
0.869929302727106
0.8689888513998272
0.8670496510387183
0.858673187026882
0.8311858931351528
0.7773241050359436
0.7116106389188469
0.639929577560591
0.563334821854382
0.48247735456085183
0.39797071922823374
0.31042147467475323
0.22041404783292573
0.1284647750548992
0.03477465449723034
-0.060210053756291675
-0.15483744846628886
-0.24737220131322094
-0.33575277819650057
-0.41735866971444163
-0.48887205728661887
-0.5471817366581443
-0.5908112357372379
-0.6231937613086034
-0.6482669535023431
-0.6687427774023418
-0.6864976536189913
-0.7029283202774645
-0.7191897712820101
-0.7363587128339842
-0.8162666029328218
-0.8690734354741929
-0.9134708706605996
-0.9490293065058547
-0.9754046696507043
-0.9923417447128831
-0.9996766438224064
-0.997338392446322
-0.9853496161582098
-0.9638263217067041
-0.9329767745018978
-0.8930994833809924
-0.8445803121534202
-0.7878887458747688
-0.7235733479783584
-0.6522564522220065
-0.5746281408127604
-0.4914395669786963
-0.40349568660065865
-0.31164746923429554
-0.21678366389063952
-0.11982219925232845
-0.021701301539080505
0.07662958403057141
0.17421898033698932
0.27012258511795817
0.3634124083011418
0.4531857514950364
0.5385739427507636
0.6187507420746245
0.6929403363575326
0.7604248463589687
0.8205512731069992
0.9121509690511692
0.9445499149919646
0.9696855157088334
0.9873644844637238
0.9974508743853417
0.9998671240169282
0.9945946529100606
0.9816740047110791
0.9816740047110791
0.9816740047110791
0.9816740047110791
0.9816740047110791
0.9816740047110791
0.9816740047110791
0.9648787890032128
0.9427917341656097
0.9155339757672464
0.8832550078938214
0.846131863253725
0.8043681422489298
0.7581928963372171
0.707859371808015
0.6536436208636119
0.6536436208636119
0.6536436208636119
0.6536436208636119
0.6536436208636119
0.5881881888746864
0.5165471745798303
0.4398672812806632
0.3591547275063875
0.27539183534681
0.1895912065771178
0.10283913318473956
0.016360994584770368
-0.0683359160715232
-0.14907783402448538
-0.22173721255698228
-0.27467166151216704
-0.27467165904919977
-0.2217372085157247
-0.14907782991200394
-0.0683359121372933
0.016360998167452085
0.10283913629751464
0.18959120917197583
0.2753918374447306
0.35915472907893914
0.43986728229997935
0.5165471751735989
0.5881881891483073
0.6536436208636119
0.6536436208636119
0.6536436208636119
0.6536436208636119
0.6536436208636119
0.6536436208636119
0.6536436208636119
0.6536436208636119
0.6536436208636119
0.6536436208636119
0.7078593718078195
0.7581928963367677
0.8043681422483517
0.8461318632530583
0.8832550078932713
0.9155339757668554
0.9427917341654263
0.9648787890031405
0.9816740047110791
0.9816740047110791
0.9957118370008571
0.9999791503001586
0.9944340711832592
0.9791310112769188
0.9542201333410139
0.9199458777816683
0.8766445640563985
0.8247410905066276
0.7647447650014705
0.6972443073051112
0.622902072206518
0.542447550099127
0.45667020878586934
0.3664117467492159
0.2725578339035161
0.17602942087293302
0.07777370207411045
-0.02124517872075572
-0.1200555891386028
-0.21768794244184483
-0.3131842116929303
-0.40560733048603564
-0.4940503880024588
-0.5776455281608377
-0.6555724655390851
-0.7270665345049458
-0.7914261925712154
-0.8480199043497375
-0.8962923385539978
-0.9357698172406723
-0.9660649638204761
-0.986880504228757
-0.9980121839560832
-0.9993507723153295
-0.9908831342783135
-0.9726923593646849
-0.9449569463179469
-0.9079490515689066
-0.8620318186748002
-0.8076558149376306
-0.7453546101690278
-0.6757395409842892
-0.5994937120028679
-0.5173652928178414
-0.4301601765095223
-0.33873407174118025
-0.2439841060346452
-0.14684002261972712
-0.04825505723830841
0.050803415573130985
0.14936337494099744
0.24645769170311496
0.3411336184575285
0.43246213848882525
0.5195470818348136
0.6015339190413983
0.6776181463147041
0.7470531797942643
0.8091576814784681
0.8633222449200324
0.9090153750859012
0.9457887037038147
0.9732813889194759
0.9912236560922532
0.9994394449850154
0.9978481373722128
0.9864653481142074
0.9654027719347964
0.9348670874059354
0.8951579288942085
0.8466649463695377
0.7898639819270545
0.725312400540386
-0.6822135273867904
0.35832207723396425
-0.818406509929249
-0.859351374395984
0.6364888087831814
-0.5273207956656549
0.4047786918767871
0.494419859426072
-0.3613933632070357
-0.4692409859987708
0.31158211329214835
0.4889416224251912
0.4823608210766113
-0.13139230314081854
0.4105420499215926
-0.36918155370022887
0.3834644861320428
-0.6563378981539881
-0.31041778616466076
-0.30122114936259914
0.4580916823853245
0.06383844882484126
0.11209290399318048
0.2272735160171129
0.20298345737468054
-0.11445786244107051
-1.0621252488283783
0.5355147857953094
0.2738831963472391
-0.11241690476688765
0.0345079705391127
-0.4906295636953545
-0.683907875132536
-0.37525133585801906
0.2987779908564822
-0.30597153510775854
0.005660171404919441
-0.23761493617819135
-0.3610322667520459
0.3527425141727035
-0.5281197582461858
0.11547748180803513
-0.13209107278367704
0.5571996037506813
0.5331203091630325
-0.5732565151033199
0.5878599444330588
-1.0454026745934832
0.18996300859072682
-0.4023389298206968
0.6511240787755965
-0.8485907122379326
-0.0049854668725823
0.08140604437346685
0.09685810785306792
0.8347105250137516
0.45456719229567444
-0.40134022315216444
-0.3644912746730113
-0.08875487986278661
-0.7482071145068734
0.6789791300639227
0.8980656330869433
0.5020313883008182
-0.4408483667061422
-0.17383369947858612
0.5376423557124538
0.4261695923258194
-0.03315008299254162
-0.12760926878434364
0.45452415800752904
-0.010320912980625646
0.4196436104376813
-0.8401579390173485
-0.8747169813825757
-0.01032788334677598
0.20297599434776248
0.4396804775116155
0.7203822917127676
-0.13257766251589292
-0.10764711205773318
0.707924307470481
0.31753203487265835
-0.3629172383397867
-0.6674233614482159
-0.18185994144822873
-0.7376032351730719
0.3696969490075084
0.4388942285629882
0.33474725516811443
0.6092417807434223
-0.5790932604596565
-0.3861377652676063
-0.37324715114651713
0.75969566636039
-0.5027185449775501
-0.5721219652153406
0.06400752146577413
-0.4866079612165257
-0.6082346892023245
-0.17628090783873449
-0.6533127068730327
0.0936798236475654
-0.24981170741122694
-0.3401665783542527
-0.34340175421649133
0.6085659148585196
0.1627100225828502
-0.0036046757174522
0.2911486916904532
0.198562038601439
-0.15585215045653988
0.021123154163800107
0.1463861246079744
0.08821759905688384
-0.8046913002360766
0.4926881664582442
0.5065867351869369
-0.4937080619398732
-0.03386800433473824
0.07346103045109581
0.17023433737591193
-0.15161414672102586
-0.10657378784712487
-0.20072330220433854
-0.03518916940603988
0.8991795363560661
-0.6679156066187102
0.6574179522107555
-0.07488824553376597
-0.6876555561492468
0.549911807211497
0.22773638363838694
-0.36860966747334084
0.22401500841223754
-0.844473021438531
0.2439519412898637
0.3191469077836233
0.35280322570015477
0.42374208458518725
-0.5070479515443433
0.41127917588898616
-0.12150613845666838
0.6242277325002112
-0.4199993756807753
-0.8228498365248305
-1.0371131711913515
0.3495153264324898
-0.9392364085201393
-0.36477454532316034
-0.0280090745587214
0.03285206982923167
0.5223297004336334
0.600176745739527
0.07884904826966405
-0.3860714432760827
-0.4557542547931363
-0.7445811234261321
0.10291716911846782
-0.03471472282751078
-0.33180645523567653
0.4153133409160058
0.577826628097571
-0.6319026811448654
-0.2545735023037658
0.24402270841697876
-0.32601649326280774
0.580565954366047
-0.5589520784414123
0.41338950210482883
-0.8123847517630971
0.5810450034428709
-0.10234578606527131
-0.45931448066488256
-0.40039056671614265
-0.7780182517073806
0.33434650907959834
0.6571483183104542
0.09256116889680142
-0.6735208239543328
-0.38278010832416004
0.39685200784522534
-0.5523503218872902
-0.21437160492948673
-0.3057566801297995
0.593787167878698
0.27862054113634754
-0.341591637771078
0.3642328650399767
-0.05141344341231208
0.7265661360394625
-1.0636449782122497
-0.010967164576536974
0.480301210188085
0.8708161263892902
-0.7013015076777003
-0.41803979852792283
-0.15521519438712353
0.1706708949990555
0.7537554289565858
0.041913395531823175
-0.36439965343269776
-0.1519497045622684
0.9944335075226224
0.5377000719032746
0.436114304280672
-0.16283094998322217
0.27745646183268535
0.36287253091602556
-0.16321083359717475
-0.27401883644323544
-0.4435618020013813
-0.07590985012705273
-0.15894807373609596
-0.9031551560769022
0.5941127358660585
0.5133499247533275
-0.41160709155831193
0.6789502849728313
0.3164537688041594
0.3091022260640781
-0.2780438340614507
-0.22431793040876968
0.7231401560824529
-0.7321166274741883
0.32492335726522864
0.5730246345072034
0.8567698199533863
-0.580698855291076
-0.43395127789531757
0.6531172964187569
0.546940699672015
-0.04456385024388434
-0.2555940975033759
0.31846267845338855
0.5807854057465344
-0.9858477896003052
0.7521657413606389
-0.9207082334282777
-0.8655645829503573
-0.2636574556015912