<VTKFile type="UnstructuredGrid" version="1.0" byte_order="LittleEndian" header_type="UInt64">
<UnstructuredGrid>
<Piece NumberOfPoints="18732" NumberOfCells="37464">
<Points>
<DataArray NumberOfComponents="3" type="Float64">
1.0 0.0 0.0
0.0 0.5 0.0
-1.0 0.0 0.0
0.0 -0.5 0.0
0.5 0.0 0.0
0.4 0.1 0.0
0.0714285714286 0.115 0.0
-0.263157894737 0.115 0.0
-0.333333333333 0.1 0.0
-0.4 0.07 0.0
-0.4 -0.07 0.0
-0.333333333333 -0.1 0.0
0.4 -0.1 0.0
-0.333333333333 0.18 0.0
-0.4 0.13 0.0
-0.4 -0.18 0.0
-0.333333333333 -0.13 0.0
0.999803005783 0.0099240821568 0.0
0.999213028258 0.0198325752188 0.0
0.998233055003 0.0297101325248 0.0
0.996867974329 0.0395418820895 0.0
0.995124444992 0.0493136365014 0.0
0.993010725433 0.0590120732885 0.0
0.990536473189 0.0686248775634 0.0
0.987712524311 0.0781408493027 0.0
0.9845506638 0.0875499720309 0.0
0.981063400762 0.096843435096 0.0
0.977263747589 0.106013640216 0.0
0.973165021971 0.115054161173 0.0
0.968780665665 0.123959692878 0.0
0.964124085048 0.132725985239 0.0
0.959208522905 0.141349752021 0.0
0.95404694494 0.149828591106 0.0
0.94865195762 0.158160885891 0.0
0.943035737615 0.166345722504 0.0
0.937209988804 0.174382795085 0.0
0.931185908457 0.182272326405 0.0
0.924974168071 0.190014991778 0.0
0.918584905561 0.197611848883 0.0
0.912027727946 0.20506427252 0.0
0.905311716937 0.212373900925 0.0
0.898445443572 0.219542584095 0.0
0.89143698904 0.226572336447 0.0
0.884293944072 0.233465318879 0.0
0.877023473216 0.240223764139 0.0
0.869632291181 0.246849993992 0.0
0.86212670773 0.253346373479 0.0
0.854512651995 0.259715290068 0.0
0.846795697932 0.265959135002 0.0
0.838981067085 0.272080304815 0.0
0.831073669142 0.278081173607 0.0
0.823078148747 0.283964065092 0.0
0.814998771115 0.289731342403 0.0
0.806839648435 0.295385249172 0.0
0.798604626373 0.300928002492 0.0
0.790297301484 0.30636178583 0.0
0.781921051314 0.311688734763 0.0
0.773479086459 0.316910911303 0.0
0.764974416132 0.322030333456 0.0
0.756409873886 0.327048965251 0.0
0.747788145872 0.331968706693 0.0
0.739111755328 0.33679140916 0.0
0.730383104273 0.341518857822 0.0
0.721604438115 0.346152796787 0.0
0.712777910167 0.350694899727 0.0
0.703905546595 0.355146794112 0.0
0.694989256249 0.359510060255 0.0
0.686030855961 0.363786223169 0.0
0.677032089555 0.367976748489 0.0
0.667994573397 0.372083072012 0.0
0.658919884822 0.376106562488 0.0
0.649809501543 0.38004855338 0.0
0.640664816602 0.383910338741 0.0
0.631487188825 0.387693155198 0.0
0.622277890633 0.391398207338 0.0
0.613038142679 0.395026655943 0.0
0.603769106389 0.398579623843 0.0
0.594471891601 0.402058195444 0.0
0.585147563262 0.405463416725 0.0
0.575797132229 0.4087963009 0.0
0.566421572456 0.412057824297 0.0
0.557021809532 0.415248932481 0.0
0.547598737195 0.418370536433 0.0
0.538153208497 0.421423517434 0.0
0.528686040189 0.424408727205 0.0
0.519198020584 0.427326987043 0.0
0.509689905908 0.430179090559 0.0
0.50016242032 0.432965805029 0.0
0.490616262137 0.43568787088 0.0
0.481052103838 0.438346003003 0.0
0.471470593376 0.440940891612 0.0
0.461872353224 0.443473203623 0.0
0.452257987402 0.445943581866 0.0
0.442628074359 0.448352647976 0.0
0.432983176034 0.450701001017 0.0
0.423323833889 0.452989219425 0.0
0.413650570968 0.455217861342 0.0
0.403963896855 0.457387464312 0.0
0.394264300183 0.459498547767 0.0
0.384552256772 0.461551611906 0.0
0.374828227648 0.463547138854 0.0
0.365092660044 0.465485593113 0.0
0.355345989833 0.467367421712 0.0
0.34558863648 0.469193055771 0.0
0.335821010743 0.470962909565 0.0
0.326043512249 0.472677381551 0.0
0.316256529405 0.474336854885 0.0
0.30646044007 0.475941697761 0.0
0.296655612208 0.477492263745 0.0
0.28684240643 0.478988891801 0.0
0.27702117337 0.480431907117 0.0
0.267192257047 0.48182162098 0.0
0.257355991625 0.483158331599 0.0
0.247512705567 0.484442323859 0.0
0.237662720166 0.485673869856 0.0
0.227806349999 0.486853229141 0.0
0.217943903366 0.487980648947 0.0
0.208075683487 0.489056364324 0.0
0.198201987871 0.490080598474 0.0
0.188323107346 0.491053563076 0.0
0.178439331182 0.491975457997 0.0
0.168550940494 0.492846472154 0.0
0.158658214347 0.493666783119 0.0
0.148761428127 0.494436557483 0.0
0.138860851918 0.495155951142 0.0
0.12895675341 0.495825109225 0.0
0.11904939707 0.496444166311 0.0
0.109139044417 0.49701324655 0.0
0.0992259542781 0.497532463764 0.0
0.0893103830524 0.498001921552 0.0
0.0793925849521 0.498421713375 0.0
0.0694728122378 0.498791922639 0.0
0.0595513154602 0.499112622768 0.0
0.0496283436759 0.499383877269 0.0
0.0397041448085 0.49960573978 0.0
0.0297789654723 0.499778254133 0.0
0.0198530514526 0.499901454376 0.0
0.00992664801427 0.499975364808 0.0
-0.00992664805421 0.499975364808 0.0
-0.019853051534 0.499901454375 0.0
-0.0297789655911 0.499778254131 0.0
-0.0397041449649 0.499605739777 0.0
-0.0496283438661 0.499383877264 0.0
-0.0595513156863 0.499112622762 0.0
-0.069472812501 0.49879192263 0.0
-0.0793925852511 0.498421713363 0.0
-0.0893103833912 0.498001921537 0.0
-0.0992259546571 0.497532463745 0.0
-0.109139044841 0.497013246526 0.0
-0.119049397538 0.496444166283 0.0
-0.128956753922 0.495825109191 0.0
-0.138860852473 0.495155951103 0.0
-0.148761428724 0.494436557438 0.0
-0.158658214986 0.493666783068 0.0
-0.168550941176 0.492846472096 0.0
-0.178439331909 0.491975457932 0.0
-0.188323108119 0.491053563002 0.0
-0.198201988689 0.490080598392 0.0
-0.208075684353 0.489056364231 0.0
-0.217943904275 0.487980648845 0.0
-0.227806350953 0.486853229029 0.0
-0.237662721161 0.485673869734 0.0
-0.247512706606 0.484442323726 0.0
-0.257355992704 0.483158331455 0.0
-0.267192258168 0.481821620824 0.0
-0.277021174536 0.480431906949 0.0
-0.28684240764 0.478988891619 0.0
-0.296655613461 0.47749226355 0.0
-0.306460441366 0.475941697553 0.0
-0.316256530744 0.474336854662 0.0
-0.326043513629 0.472677381313 0.0
-0.335821012162 0.470962909312 0.0
-0.345588637942 0.469193055502 0.0
-0.355345991336 0.467367421426 0.0
-0.365092661588 0.46548559281 0.0
-0.374828229232 0.463547138534 0.0
-0.384552258403 0.461551611566 0.0
-0.394264301858 0.459498547408 0.0
-0.403963898573 0.457387463932 0.0
-0.413650572725 0.455217860942 0.0
-0.423323835687 0.452989219005 0.0
-0.432983177868 0.450701000577 0.0
-0.442628076233 0.448352647514 0.0
-0.452257989316 0.445943581381 0.0
-0.461872355179 0.443473203114 0.0
-0.471470595371 0.440940891078 0.0
-0.481052105873 0.438346002444 0.0
-0.490616264216 0.435687870294 0.0
-0.500162422435 0.432965804419 0.0
-0.509689908061 0.430179089921 0.0
-0.519198022773 0.427326986378 0.0
-0.528686042413 0.424408726512 0.0
-0.538153210761 0.421423516711 0.0
-0.547598739498 0.41837053568 0.0
-0.557021811872 0.415248931696 0.0
-0.566421574829 0.412057823481 0.0
-0.575797134636 0.408796300052 0.0
-0.585147565706 0.405463415843 0.0
-0.594471894082 0.402058194527 0.0
-0.603769108906 0.39857962289 0.0
-0.613038145229 0.395026654953 0.0
-0.622277893216 0.391398206311 0.0
-0.631487191437 0.387693154134 0.0
-0.640664819243 0.383910337639 0.0
-0.649809504206 0.380048552241 0.0
-0.658919887512 0.37610656131 0.0
-0.667994583517 0.37208306747 0.0
-0.677032092307 0.367976747223 0.0
-0.686030864822 0.363786218991 0.0
-0.694989259067 0.359510058893 0.0
-0.703905549424 0.355146792711 0.0
-0.712777912955 0.35069489831 0.0
-0.721604440827 0.346152795373 0.0
-0.730383106911 0.341518856412 0.0
-0.739111757888 0.336791407755 0.0
-0.747788148358 0.331968705293 0.0
-0.756409876295 0.327048963858 0.0
-0.764974418471 0.322030332067 0.0
-0.773479088727 0.316910909919 0.0
-0.781921053507 0.311688733388 0.0
-0.790297303607 0.30636178446 0.0
-0.798604628423 0.300928001132 0.0
-0.806839650413 0.295385247821 0.0
-0.814998773015 0.289731341066 0.0
-0.823078150576 0.283964063767 0.0
-0.831073670902 0.278081172292 0.0
-0.838981068771 0.272080303516 0.0
-0.846795699549 0.265959133714 0.0
-0.854512653542 0.259715288795 0.0
-0.862126709211 0.253346372218 0.0
-0.869632292588 0.246849992753 0.0
-0.877023474548 0.240223762923 0.0
-0.884293947734 0.233465315412 0.0
-0.891436986163 0.226572339276 0.0
-0.89844544469 0.219542582951 0.0
-0.905311717991 0.212373899802 0.0
-0.912027728934 0.205064271422 0.0
-0.918584906481 0.197611847814 0.0
-0.924974168923 0.190014990741 0.0
-0.931185909243 0.1822723254 0.0
-0.937209989527 0.174382794114 0.0
-0.943035738274 0.166345721569 0.0
-0.948651958219 0.158160884994 0.0
-0.954046945481 0.149828590245 0.0
-0.959208523387 0.141349751204 0.0
-0.964124085473 0.132725984468 0.0
-0.968780666038 0.123959692148 0.0
-0.973165022292 0.115054160493 0.0
-0.977263747864 0.106013639583 0.0
-0.981063400991 0.0968434345167 0.0
-0.984550663988 0.0875499715035 0.0
-0.98771252446 0.0781408488336 0.0
-0.990536473303 0.0686248771526 0.0
-0.993010725516 0.0590120729386 0.0
-0.995124445049 0.0493136362112 0.0
-0.996867974366 0.039541881855 0.0
-0.998233055025 0.0297101323469 0.0
-0.999213028268 0.0198325750999 0.0
-0.999803005786 0.00992408209621 0.0
-0.999803005783 -0.0099240821568 0.0
-0.999213028258 -0.0198325752188 0.0
-0.998233055003 -0.0297101325248 0.0
-0.996867974329 -0.0395418820895 0.0
-0.995124444992 -0.0493136365014 0.0
-0.993010725433 -0.0590120732885 0.0
-0.990536473189 -0.0686248775634 0.0
-0.987712524311 -0.0781408493027 0.0
-0.9845506638 -0.0875499720309 0.0
-0.981063400762 -0.096843435096 0.0
-0.977263747589 -0.106013640216 0.0
-0.973165021971 -0.115054161173 0.0
-0.968780665665 -0.123959692878 0.0
-0.964124085048 -0.132725985239 0.0
-0.959208522905 -0.141349752021 0.0
-0.95404694494 -0.149828591106 0.0
-0.94865195762 -0.158160885891 0.0
-0.943035737615 -0.166345722504 0.0
-0.937209988804 -0.174382795085 0.0
-0.931185908457 -0.182272326405 0.0
-0.924974168071 -0.190014991778 0.0
-0.918584905561 -0.197611848883 0.0
-0.912027727946 -0.20506427252 0.0
-0.905311716937 -0.212373900925 0.0
-0.898445443572 -0.219542584095 0.0
-0.89143698904 -0.226572336447 0.0
-0.884293944072 -0.233465318879 0.0
-0.877023473216 -0.240223764139 0.0
-0.869632291181 -0.246849993992 0.0
-0.86212670773 -0.253346373479 0.0
-0.854512651995 -0.259715290068 0.0
[...]
<PointData Scalars="rendu">
<DataArray type="Float64" Name="Partie Relle" format="ascii">
-0.30106315782582294
-0.029437260593693414
0.7475571180759335
0.2128490530604295
-0.28366218546322625
0.6536436208636119
-0.7555613467006966
0.8727378164983596
0.9816740047110791
0.6536436208636119
0.6536436208636119
0.9816740047110791
0.6536436208636119
0.9816740047110791
0.6536436208636119
0.6536436208636119
0.9816740047110791
-0.300225564942265
-0.29975673240258155
-0.2991665536524318
-0.2991196484214782
-0.29883443537138027
-0.29893139847703587
-0.29918065088139273
-0.29951407911880645
-0.2997463995707048
-0.30023825250356334
-0.30095445527159903
-0.3015335950661748
-0.30219536104506617
-0.3029800915160869
-0.3037868840588775
-0.3044355459518931
-0.30503779670791253
-0.30578940160983303
-0.30647880550857276
-0.3071108227564751
-0.30784094084159397
-0.30820646538450325
-0.3088502399974409
-0.30925851199293
-0.30958696520375883
-0.3099385969987338
-0.3104727060371729
-0.3106109476285312
-0.3109121974251212
-0.3111583520197487
-0.31144878464470627
-0.311697421387918
-0.31203282227901524
-0.31249077556732596
-0.3129020230796096
-0.3137155475253633
-0.3140019841410796
-0.3149654650897685
-0.31586871227002167
-0.31707833456181783
-0.3184600263967749
-0.3198393963857103
-0.32155693775086414
-0.3236800104806604
-0.3261375123719711
-0.3284801918691906
-0.33147359654331815
-0.33460299951117506
-0.33793230166348365
-0.34183963637536924
-0.3463454808317307
-0.3506262169538431
-0.35585196257844914
-0.36082604933302126
-0.3662580512750625
-0.37219499441979687
-0.378719783546017
-0.38511786345619153
-0.3920418936978163
-0.39914309005584175
-0.40661242492479205
-0.41421100520197696
-0.42231085665027385
-0.43022449219857156
-0.43900766626818166
-0.4471123340071739
-0.4556025462061781
-0.46436898883626365
-0.4730980865662416
-0.48210275348932535
-0.4904165252206914
-0.49909891759224323
-0.5076747282691654
-0.5163842283385582
-0.5245135978535974
-0.5328146390028516
-0.5403992898339451
-0.5479008658190054
-0.5552272402551246
-0.5620938495595829
-0.5686132154506764
-0.5746801101582188
-0.5802202144320721
-0.5853194079248518
-0.5899969362989357
-0.5939331311456384
-0.5973887655184666
-0.6000742218812508
-0.6021615980082904
-0.6034097824226436
-0.6040563629979191
-0.6035478561911521
-0.6030127357024272
-0.6003011136942253
-0.5970852914481327
-0.5926565505871974
-0.5873682974499466
-0.5807821500857484
-0.5727677444413967
-0.5635902379701148
-0.5533724830100695
-0.5410909447760707
-0.5277340817826537
-0.5125108281603828
-0.49627350848054996
-0.4780984799129513
-0.45847259182046507
-0.4376085632300406
-0.4148630510158911
-0.39106748043216655
-0.36582012954942905
-0.33908040539666906
-0.3111940506983426
-0.28242602150381724
-0.2526873910229776
-0.2220375188809999
-0.19064534081069529
-0.1587723616956558
-0.12653098121639544
-0.09412178661529538
-0.06170332164560481
0.002531867229224996
0.03385017706499346
0.06447895001012177
0.09424058464074377
0.12293122830546245
0.15017569941425446
0.17622102683335378
0.20062295279041722
0.2230935177235245
0.2437825072919175
0.2625435033866332
0.2793340694249902
0.29338302933565324
0.3053762032712421
0.31531805264243595
0.32223943295347207
0.3272132109149888
0.3292928523939107
0.32926433892511703
0.3261872362508825
0.3212255749545524
0.31342989868213317
0.3030420891440161
0.2911359344326455
0.2764572312253012
0.25975096996970115
0.24111546774927287
0.2206068637197592
0.1983884425548511
0.1748579150526095
0.14962550541212338
0.12343550183441597
0.09602728960635341
0.06801799342572551
0.039171731510806516
0.00992001197603933
-0.019541614785091494
-0.04902614420192319
-0.0783727361635889
-0.10727580674488736
-0.13589035713904898
-0.16351997487683664
-0.1901375142461409
-0.2155915715689865
-0.24018924358804117
-0.2630917622615654
-0.28413602714688413
-0.30364028775216784
-0.32117695784842276
-0.33662501062137007
-0.35023994521353585
-0.36139731129062086
-0.37033654096688695
-0.37710468591523316
-0.3811705522352845
-0.3828592434633351
-0.382425092120725
-0.37916611423905605
-0.373583410959685
-0.3653577154673958
-0.354980496964392
-0.3425907555635753
-0.32730150016406134
-0.3105238331363584
-0.29112830543957113
-0.2701258353558668
-0.24687866375522713
-0.22232868434570116
-0.19592763935887025
-0.16782248026694807
-0.13889182530319377
-0.10847760735295474
-0.07703482479646236
-0.044694976038155636
-0.011828550654480055
0.021760241195483004
0.05568521115824722
0.08989414145407446
0.12418338306480162
0.15839216426482206
0.1925513801850722
0.2261235178291819
0.259290278434526
0.29184852906327374
0.3238406061853599
0.3547336437529053
0.384789610500301
0.4141501016515284
0.441908883890962
0.4686671596679768
0.49432158747571997
0.5185352104088463
0.5414099691952784
0.5627365596616852
0.583197711695741
0.602107835077361
0.6195151546537312
0.6350211056717541
0.6499841097433879
0.6632372799470723
0.6753247286409167
0.6859862842688278
0.6952789978405232
0.7039453277235318
0.7113557803530447
0.7177325776981166
0.7232493406339917
0.7275889122044411
0.7313575643854254
0.7345684060984907
0.7371215389677348
0.7393783101148104
0.7408814295212756
0.7421535064364948
0.7433422567842047
0.7441113937954513
0.7447107769003076
0.7450290496731682
0.7460188087979048
0.7460567091137446
0.7465969132824906
0.7480173565179182
0.7485441317753831
0.7492827633920992
0.7503442462353557
0.7506318671008169
0.7511735956126682
0.7518445140967358
0.7521491077983156
0.7517932834916026
0.7515843657897532
0.7508052276759308
0.7497254604832752
0.7479301117337686
0.7453369670489444
0.7422831287564393
0.7380861894781807
0.7331607697531438
0.7270766434143378
0.7199547308036416
0.711597705989539
0.7021359296659055
0.6915865669405353
0.6794649902085843
0.6660561911251826
0.6511802467735835
0.6353091715558197
0.6167470799265876
0.5978848978749873
0.5774729649779992
0.555062432220448
0.5312687440706985
0.5063628727891107
0.47993794750175744
0.45228284720467254
0.42321788267316585
0.3929254491358228
0.36168574034923356
0.3296089107001109
0.2962977014369822
0.2622024771832936
0.2275906571561225
0.1923738228932774
0.1567243431899197
0.12082092855101377
0.08477349599934489
0.04871527918958595
0.012905778060067277
-0.022683604072788265
-0.057839471589009706
-0.09220711566260123
-0.12588252814037051
-0.1585347592501298
-0.1901314100711092
-0.22047046189897027
-0.2494522086068173
-0.27682161499420777
-0.3025997014152685
-0.32661760014981844
-0.3483840985682596
-0.3684363956976912
-0.3865368475280604
-0.4021434347618671
-0.4156128040789665
-0.42669600647944994
-0.43536399717040547
-0.44162868815939876
-0.4456851889697825
-0.446776468937881
-0.445853464130159
-0.4424700908953062
-0.4359657065027676
-0.42791879857797244
-0.41725617265419135
-0.40454158519804245
-0.3894116987783518
-0.3725296155406286
-0.3532353969520533
-0.33247384525940876
-0.30991199121373414
-0.28590129571558964
-0.2604351398796938
-0.233509244027406
-0.2055899011076277
-0.17675871138594487
-0.14715108834531634
-0.11701627305394005
-0.08628897060616955
-0.05544990999086137
-0.02454990234007099
0.0062574531972699856
0.03669193870994557
0.06669244430084334
0.09607584522091314
0.1246317982546632
0.15202688123440267
0.17857130253892012
0.20354349583904607
0.227350030857971
0.24951683491247345
0.2699412446269436
0.2885917938183378
0.30550082845378396
0.32047292166797375
0.3330690852052415
0.3440670620812014
0.35249751158735054
0.3590926884820772
0.36318668540006943
0.3655082039020378
0.3652086864708357
0.3629472108757641
0.358657348597875
0.35223415894016524
0.3436159917275785
0.3334200275672632
0.3205178379164752
0.30665652927296394
0.2908462353513954
0.27321595653089326
0.25449192177585467
0.23416243231769782
0.19021170916766555
0.16680229929666138
0.14248641008593946
0.11765820533162547
0.09220773394480106
0.06635654364227081
0.04035211855042891
0.014229805150542268
-0.011839960227651651
-0.03772165526665655
-0.06324294134648412
-0.08834879640868736
-0.11285370853648755
-0.13681032546810706
-0.1597949795957323
-0.18213730058049993
-0.20338198844880231
-0.22368434329534587
-0.24267587789786937
-0.260716706742179
-0.2774491683215655
-0.293073441904305
-0.3072292190083308
-0.3202888369444469
-0.3317026215455172
-0.3421498665288334
-0.3511132719616443
-0.35913212982681275
-0.36517195888197984
-0.3707377575133144
-0.37456592623344553
-0.37755386660264656
-0.379640994386086
-0.380253287478738
-0.38024002184690875
-0.3790595185239872
-0.3772439094942993
-0.3746126092252459
-0.3713410166780537
-0.3676814937173955
-0.36296190331986333
-0.35830874992495065
-0.3530450041919394
-0.34743800926692203
-0.34182799761187993
-0.3358605354681678
-0.32997532776865923
-0.3239555862159147
-0.31787507336369364
-0.3120349518299948
-0.3061165422908695
-0.30086277169609915
-0.2954565179974433
-0.290467040556025
-0.2858944851280089
-0.28149907839291455
-0.2775430013469607
-0.27396862178940595
-0.2707604597354633
-0.2680313642531579
-0.26586627036855554
-0.263702309454619
-0.2623654115582604
-0.2614590952840262
-0.2607787332777732
-0.26065993881571575
-0.26095173360731005
-0.26154502311161887
-0.26249974041354357
-0.26375894813978185
-0.26560598330752017
-0.26754197518161627
-0.26964523874079593
-0.272097712328015
-0.2747064986170804
-0.277777241136455
-0.2808442165212427
-0.2839618110430566
-0.28697531026840783
-0.2906288804665809
-0.2937863872086854
-0.2971155043194905
-0.300340903515776
-0.30367035963951505
-0.3069435102453841
-0.30975534889576783
-0.3126640077066899
-0.3154485475396379
-0.3179502519424566
-0.3202874221059727
-0.3225116723912605
-0.3242748718198557
-0.32607448603023165
-0.3276600383392082
-0.3285285036373068
-0.32932602976725256
-0.3302081308274462
-0.3306223168379897
-0.33057701085665026
-0.33041674136866844
-0.3300396050782997
-0.3293815101572284
-0.3287328795532165
-0.3277894792913591
-0.32650275652662203
-0.32526518891922834
-0.32393940842250524
-0.32210208709193167
-0.32036069338146866
-0.3189240392413691
-0.31694558448439386
-0.31525900641114246
-0.31352248933165633
-0.31163554254217796
-0.3099361880114066
-0.30824580456472406
-0.3068677310246843
-0.30537893404393945
-0.3039781844418856
-0.302827510228068
-0.30179527097487796
-0.2790414321852021
-0.2651854948606698
-0.24212105319334923
-0.20991747326490134
-0.16872135592622697
-0.11879939917363394
-0.06058434802263873
0.005282176486397624
0.07791664302101786
0.1561767879115604
0.23866631419466314
0.32376445104297696
0.4096809652517934
0.49453405207503565
0.5764453441889037
0.5764453438633471
0.49453405140148005
0.4096809640253677
0.3237644493315541
0.2386663119389704
0.1561767848790905
0.07791663972458866
0.005282172823573387
-0.06058435093414211
-0.11879940134457201
-0.16872135746874498
-0.20991747419968215
-0.24212105369617612
-0.2651854950839698
-0.27904143223469074
0.7248550703883768
0.7891858909078512
0.8458942507192292
0.8943781228041984
0.9341443352775671
0.9647970250960685
0.9860345737387325
0.9976515211545476
0.9995456508297325
0.9917347422142025
0.9743975449107423
0.9479866160645551
0.913593957922157
0.8743908496515307
0.8407754580776324
0.8241368529461919
0.822045306566704
0.8282640032011724
0.8386152899178865
0.8504832986804695
0.8619014739642312
0.8707319562292992
0.8729008174962679
0.869929302727106
0.8689888513998272
0.8670496510387183
0.858673187026882
0.8311858931351528
0.7773241050359436
0.7116106389188469
0.639929577560591
0.563334821854382
0.48247735456085183
0.39797071922823374
0.31042147467475323
0.22041404783292573
0.1284647750548992
0.03477465449723034
-0.060210053756291675
-0.15483744846628886
-0.24737220131322094
-0.33575277819650057
-0.41735866971444163
-0.48887205728661887
-0.5471817366581443
-0.5908112357372379
-0.6231937613086034
-0.6482669535023431
-0.6687427774023418
-0.6864976536189913
-0.7029283202774645
-0.7191897712820101
-0.7363587128339842
-0.8162666029328218
-0.8690734354741929
-0.9134708706605996
-0.9490293065058547
-0.9754046696507043
-0.9923417447128831
-0.9996766438224064
-0.997338392446322
-0.9853496161582098
-0.9638263217067041
-0.9329767745018978
-0.8930994833809924
-0.8445803121534202
-0.7878887458747688
-0.7235733479783584
-0.6522564522220065
-0.5746281408127604
-0.4914395669786963
-0.40349568660065865
-0.31164746923429554
-0.21678366389063952
-0.11982219925232845
-0.021701301539080505
0.07662958403057141
0.17421898033698932
0.27012258511795817
0.3634124083011418
0.4531857514950364
0.5385739427507636
0.6187507420746245
0.6929403363575326
0.7604248463589687
0.8205512731069992
0.9121509690511692
0.9445499149919646
0.9696855157088334
0.9873644844637238
0.9974508743853417
0.9998671240169282
0.9945946529100606
0.9816740047110791
0.9816740047110791
0.9816740047110791
0.9816740047110791
0.9816740047110791
0.9816740047110791
0.9816740047110791
0.9648787890032128
0.9427917341656097
0.9155339757672464
0.8832550078938214
0.846131863253725
0.8043681422489298
0.7581928963372171
0.707859371808015
0.6536436208636119
0.6536436208636119
0.6536436208636119
0.6536436208636119
0.6536436208636119
0.5881881888746864
0.5165471745798303
0.4398672812806632
0.3591547275063875
0.27539183534681
0.1895912065771178
0.10283913318473956
0.016360994584770368
-0.0683359160715232
-0.14907783402448538
-0.22173721255698228
-0.27467166151216704
-0.27467165904919977
-0.2217372085157247
-0.14907782991200394
-0.0683359121372933
0.016360998167452085
0.10283913629751464
0.18959120917197583
0.2753918374447306
0.35915472907893914
0.43986728229997935
0.5165471751735989
0.5881881891483073
0.6536436208636119
0.6536436208636119
0.6536436208636119
0.6536436208636119
0.6536436208636119
0.6536436208636119
0.6536436208636119
0.6536436208636119
0.6536436208636119
0.6536436208636119
0.7078593718078195
0.7581928963367677
0.8043681422483517
0.8461318632530583
0.8832550078932713
0.9155339757668554
0.9427917341654263
0.9648787890031405
0.9816740047110791
0.9816740047110791
0.9957118370008571
0.9999791503001586
0.9944340711832592
0.9791310112769188
0.9542201333410139
0.9199458777816683
0.8766445640563985
0.8247410905066276
0.7647447650014705
0.6972443073051112
0.622902072206518
0.542447550099127
0.45667020878586934
0.3664117467492159
0.2725578339035161
0.17602942087293302
0.07777370207411045
-0.02124517872075572
-0.1200555891386028
-0.21768794244184483
-0.3131842116929303
-0.40560733048603564
-0.4940503880024588
-0.5776455281608377
-0.6555724655390851
-0.7270665345049458
-0.7914261925712154
-0.8480199043497375
-0.8962923385539978
-0.9357698172406723
-0.9660649638204761
-0.986880504228757
-0.9980121839560832
-0.9993507723153295
-0.9908831342783135
-0.9726923593646849
-0.9449569463179469
-0.9079490515689066
-0.8620318186748002
-0.8076558149376306
-0.7453546101690278
-0.6757395409842892
-0.5994937120028679
-0.5173652928178414
-0.4301601765095223
-0.33873407174118025
-0.2439841060346452
-0.14684002261972712
-0.04825505723830841
0.050803415573130985
0.14936337494099744
0.24645769170311496
0.3411336184575285
0.43246213848882525
0.5195470818348136
0.6015339190413983
0.6776181463147041
0.7470531797942643
0.8091576814784681
0.8633222449200324
0.9090153750859012
0.9457887037038147
0.9732813889194759
0.9912236560922532
0.9994394449850154
0.9978481373722128
0.9864653481142074
0.9654027719347964
0.9348670874059354
0.8951579288942085
0.8466649463695377
0.7898639819270545
0.725312400540386
-0.6822135273867904
0.3583220772339641
-0.8184065099292488
-0.859351374395984
0.6364888087831817
-0.5273207956656549
0.40477869187678706
0.4944198594260718
-0.36139336320703586
-0.4692409859987707
0.31158211329214835
0.48894162242519107
0.48236082107661105
-0.1313923031408185
0.4105420499215925
-0.369181553700229
0.38346448613204287
-0.6563378981539881
-0.3104177861646608
-0.30122114936259914
0.45809168238532444
0.06383844882484131
0.11209290399318053
0.22727351601711293
0.20298345737468057
-0.11445786244107051
-1.0621252488283783
0.5355147857953091
0.273883196347239
-0.11241690476688755
0.03450797053911267
-0.4906295636953545
-0.683907875132536
-0.3752513358580192
0.2987779908564822
-0.3059715351077585
0.005660171404919411
-0.23761493617819132
-0.3610322667520458
0.35274251417270347
-0.5281197582461857
0.11547748180803508
-0.13209107278367693
0.5571996037506813
0.5331203091630322
-0.57325651510332
0.5878599444330584
-1.045402674593483
0.18996300859072673
-0.4023389298206969
0.6511240787755965
-0.8485907122379326
-0.00498546687258218
0.0814060443734668
0.09685810785306793
0.8347105250137518
0.45456719229567455
-0.40134022315216433
-0.36449127467301135
-0.08875487986278652
-0.7482071145068735
0.6789791300639226
0.8980656330869431
0.5020313883008178
-0.44084836670614214
-0.17383369947858615
0.537642355712454
0.42616959232581914
-0.03315008299254167
-0.1276092687843437
0.45452415800752904
-0.01032091298062554
0.4196436104376811
-0.840157939017348
-0.8747169813825755
-0.010327883346775826
0.20297599434776242
0.4396804775116156
0.7203822917127676
-0.1325776625158928
-0.10764711205773311
0.707924307470481
0.3175320348726581
-0.36291723833978673
-0.6674233614482157
-0.18185994144822862
-0.7376032351730717
0.36969694900750827
0.4388942285629881
0.33474725516811443
0.6092417807434223
-0.5790932604596566
-0.3861377652676063
-0.3732471511465172
0.7596956663603898
-0.5027185449775499
-0.5721219652153406
0.06400752146577413
-0.48660796121652583
-0.6082346892023243
-0.17628090783873437
-0.6533127068730327
0.09367982364756527
-0.24981170741122682
-0.34016657835425274
-0.34340175421649133
0.6085659148585196
0.1627100225828502
-0.0036046757174521913
0.29114869169045327
0.19856203860143892
-0.15585215045653997
0.02112315416379993
0.14638612460797434
0.08821759905688378
-0.8046913002360766
0.49268816645824387
0.5065867351869369
-0.4937080619398732
-0.033868004334738286
0.07346103045109575
0.17023433737591206
-0.15161414672102574
-0.10657378784712476
-0.20072330220433843
-0.03518916940603979
0.8991795363560664
-0.66791560661871
0.6574179522107555
-0.07488824553376598
-0.6876555561492467
0.5499118072114967
0.22773638363838697
-0.3686096674733409
0.22401500841223765
-0.844473021438531
0.24395194128986378
0.3191469077836232
0.35280322570015454
0.42374208458518725
-0.5070479515443432
0.41127917588898616
-0.12150613845666824
0.6242277325002112
-0.4199993756807753
-0.8228498365248302
-1.0371131711913513
0.3495153264324898
-0.939236408520139
-0.3647745453231603
-0.0280090745587214
0.03285206982923171
0.5223297004336331
0.6001767457395265
0.07884904826966405
-0.38607144327608267
-0.4557542547931363
-0.7445811234261321
0.10291716911846782
-0.034714722827510716
-0.3318064552356767
0.41531334091600564
0.5778266280975708
-0.6319026811448651
-0.25457350230376574
0.24402270841697876
-0.32601649326280774
0.5805659543660467
-0.5589520784414123
0.4133895021048288
-0.8123847517630969
0.5810450034428707
-0.10234578606527127
-0.4593144806648827
-0.4003905667161427
-0.7780182517073805
0.33434650907959834
0.6571483183104544
0.09256116889680148
-0.6735208239543328
-0.3827801083241599
0.3968520078452251
-0.5523503218872903
-0.21437160492948662
-0.3057566801297994
0.5937871678786979
0.2786205411363474
-0.3415916377710781
0.3642328650399768
-0.05141344341231215
0.7265661360394624
-1.0636449782122497
-0.010967164576537052
0.4803012101880852
0.8708161263892902
-0.7013015076777
-0.41803979852792283
-0.1552151943871234
0.17067089499905558
0.7537554289565859
0.04191339553182321
-0.3643996534326976
-0.1519497045622683
0.9944335075226224
0.5377000719032746
0.436114304280672
-0.162830949983222
0.2774564618326853
0.3628725309160257
-0.16321083359717473
-0.2740188364432354
-0.44356180200138146
-0.07590985012705273
-0.15894807373609587
-0.9031551560769021
0.5941127358660585
0.5133499247533275
-0.4116070915583118
0.6789502849728312
0.31645376880415915
0.30910222606407795
-0.2780438340614508
-0.22431793040876952
0.7231401560824529
-0.7321166274741882
0.3249233572652287
0.5730246345072032
0.8567698199533862
-0.580698855291076
-0.43395127789531773
0.6531172964187566
0.5469406996720148
-0.04456385024388432
-0.2555940975033758
0.3184626784533885
0.5807854057465345
-0.9858477896003052
0.7521657413606391
-0.9207082334282773
-0.8655645829503573
-0.26365745560159104